LAMMPS output created by EMC v9.4.4, build Aug 20 2021 07:52:44

       18145  atoms
6447 bonds
10220 angles
13377 dihedrals

           9  atom types
           6  bond types
          11  angle types
          12  dihedral types

             0     135.334532  xlo xhi
             0    36.61627605  ylo yhi
             0    36.61627605  zlo zhi

Masses

       1   12.01115  # C
       2   18.99840  # F
       3   15.99940  # GFOc
       4   32.06400  # GGS
       5   15.99940  # GOs      
	   6    22.990 	 # Na
       7   195.09  # P
       8   1.00797  # WH
       9   15.99940 # WO

Atoms

1 1 1 0.3275 78.5596771197 33.1343511848 28.5439772174 # C
2 1 2 -0.1576 78.1177211475 33.9815445164 28.6116418089 # F
3 1 2 -0.1576 79.3995976335 33.1682235102 28.8318807904 # F
4 1 1 0.3275 79.0691019706 33.0898961869 27.3381299619 # C
5 1 2 -0.1576 79.7630514686 34.1632739053 27.3761504102 # F
6 1 2 -0.1576 79.6942164137 32.0846371066 27.0061332695 # F
7 1 1 0.3275 78.6368690057 32.5789107631 26.5030483387 # C
8 1 2 -0.1576 77.4773125102 32.8003053935 26.3956429411 # F
9 1 2 -0.1576 79.2033004372 32.4586852026 25.9059247824 # F
10 1 1 0.3275 78.7896544082 32.5366544164 25.3633746413 # C
11 1 2 -0.1576 77.9321230055 32.5820193145 24.7988250973 # F
12 1 2 -0.1576 79.0941477224 33.5935723433 25.9280221599 # F
13 1 1 0.3275 79.6102336601 32.1176997421 24.8402829794 # C
14 1 2 -0.1576 79.8971333528 31.9673649205 24.0616031871 # F
15 1 2 -0.1576 79.9835250040 31.6839159020 25.5040198493 # F
16 1 1 0.3275 78.8418905438 33.3715531204 24.6601876957 # C
17 1 2 -0.1576 78.8499836746 34.5306445303 24.4024487170 # F
18 1 2 -0.1576 78.7953834988 33.5931338356 25.3753415027 # F
19 1 1 0.3275 78.2962378686 33.0666335346 23.5806632841 # C
20 1 2 -0.1576 78.2372156926 31.8991242913 23.4368643768 # F
21 1 2 -0.1576 78.6275648116 33.8162712985 23.5303436318 # F
22 1 1 0.3275 77.2260916632 33.7100775366 23.1206872967 # C
23 1 2 -0.1576 77.5067175298 34.5143752273 23.6130779352 # F
24 1 2 -0.1576 76.5652832286 32.5916501520 23.4357283541 # F
25 1 1 0.3275 76.1163017122 34.5790920487 22.2886905781 # C
26 1 2 -0.1576 75.2940745857 33.8617470555 22.2601018797 # F
27 1 2 -0.1576 76.4298598673 35.3416605521 22.6854211913 # F
28 1 1 0.3275 76.2882151153 35.4342371045 21.5070506946 # C
29 1 2 -0.1576 75.5533170099 35.8790184838 21.9435573332 # F
30 1 2 -0.1576 76.6372228073 34.8911267418 20.7371384281 # F
31 1 1 0.3275 77.1535754024 36.3755694367 21.3310130828 # C
32 1 2 -0.1576 77.3395081465 37.5073769566 21.5030936689 # F
33 1 2 -0.1576 78.1390777229 35.8803972763 21.2147607675 # F
34 1 1 0.3275 76.8059465646 36.4411482124 20.3458223551 # C
35 1 2 -0.1576 77.4594953960 36.3335438969 19.5865272434 # F
36 1 2 -0.1576 76.7981742803 36.9943686955 20.8385618344 # F
37 1 1 0.3275 75.7158094940 36.7293091104 20.2618842698 # C
38 1 2 -0.1576 75.9647613399 37.3943652763 20.0505861208 # F
39 1 2 -0.1576 75.4076790001 36.5974876757 21.5369476233 # F
40 1 1 0.3275 74.7074272253 36.4866956377 19.6513542620 # C
41 1 2 -0.1576 73.8676516050 35.5955810376 20.1745031007 # F
42 1 2 -0.1576 75.6998080855 35.7322868988 19.2453569213 # F
43 1 1 0.2465 74.4000886870 36.9576813122 18.6781075875 # C
44 1 2 -0.1336 73.8408529113 36.1734562087 18.2050883626 # F
45 1 2 -0.1336 74.1301060754 37.7995093060 19.0025579884 # F
46 1 1 0.1317 75.2249859293 36.9196466531 18.0467526747 # C
47 1 2 -0.1193 75.6327512928 35.9867092364 17.7580339920 # F
48 1 3 -0.3109 75.3982440135 36.7241722364 19.0678405297 # GFOc
49 1 1 0.4954 75.2080679683 37.7934164916 19.8797848551 # C
50 1 2 -0.1280 75.8405679849 38.4332922577 20.2605928939 # F
51 1 2 -0.1559 74.6139633440 37.5412781754 20.5384278431 # F
52 1 1 0.0465 74.9792817111 38.5788911769 19.1072476079 # C
53 1 2 -0.1122 75.8301320760 39.3855269812 19.0444199177 # F
54 1 1 0.5842 74.9702327680 38.7564998919 17.9658753564 # C
55 1 2 -0.1563 75.6397766796 39.5652956591 17.0649351300 # F
56 1 2 -0.1736 75.3760544273 37.5519348619 18.5422008026 # F
57 1 2 -0.1844 74.3625296370 38.8432307692 17.9452670370 # F
58 1 3 -0.2516 74.0945530535 38.8713703611 18.9523939309 # GFOc
59 1 1 0.4557 73.2902433250 38.4304800016 18.8890640808 # C
60 1 2 -0.1368 73.7585019295 37.8227888766 17.9656478791 # F
61 1 2 -0.1393 72.9246888690 39.0636087886 19.9755849614 # F
62 1 1 0.1062 72.2023146379 38.5233561212 18.5890785477 # C
63 1 2 -0.1457 71.4754405546 39.3666990945 18.4809194367 # F
64 1 2 -0.1482 72.5558752365 38.0700371223 19.3024174471 # F
65 1 4 1.1345 71.5867253506 37.8188039761 18.6432460915 # GGS
66 1 5 -0.6371 72.2951307310 36.9543221729 18.4672073087 # GOs
67 1 5 -0.6371 71.1834303326 37.5697256048 17.6861773732 # GOs
68 1 5 -0.6371 70.7217122124 37.6738226465 19.0931514610 # GOs
69 1 1 0.3275 75.1890730948 37.6603714016 16.9709241935 # C
70 1 2 -0.1576 74.4608001905 38.6759800080 16.5616137503 # F
71 1 2 -0.1576 75.8912087596 38.6926700457 16.5322658566 # F
72 1 1 0.3275 74.7655000785 36.7202182084 16.6110818252 # C
73 1 2 -0.1576 74.6532109165 36.0589480892 15.8531879986 # F
74 1 2 -0.1576 73.8650815808 36.3383571549 17.1240534711 # F
75 1 1 0.3275 75.6384159687 36.9421167214 16.8176807072 # C
76 1 2 -0.1576 75.6640811418 37.1730860370 15.6256412112 # F
77 1 2 -0.1576 75.8478654812 35.9885902613 16.5315518388 # F
78 1 1 0.3275 75.7988930332 37.6543757890 17.5463983851 # C
79 1 2 -0.1576 76.4973053162 38.8330893109 17.5641580995 # F
80 1 2 -0.1576 74.6282668709 37.9798891135 17.9354489882 # F
81 1 1 0.3275 77.0300056959 37.2739760355 17.9762218901 # C
82 1 2 -0.1576 78.1074309153 37.7874123811 17.4783020579 # F
83 1 2 -0.1576 76.8644183440 36.1889176404 17.3499007248 # F
84 1 1 0.3275 77.3274942903 36.2000511305 18.5195441893 # C
85 1 2 -0.1576 76.7165331879 35.7022396846 19.0581099974 # F
86 1 2 -0.1576 77.5469395145 37.0052256510 19.0393280015 # F
87 1 1 0.3275 78.0167667348 35.5430497853 17.5192323950 # C
88 1 2 -0.1576 78.7837452098 35.1031326501 17.4782226118 # F
89 1 2 -0.1576 78.3680318356 34.5369493375 17.8162263438 # F
90 1 1 0.3275 78.1890095918 36.6500165124 17.2994931018 # C
91 1 2 -0.1576 79.2532998090 37.0883410812 17.2077742230 # F
92 1 2 -0.1576 77.9263013900 36.4522033105 17.9552567236 # F
93 1 1 0.3275 77.4848716878 37.2258361319 16.7021375710 # C
94 1 2 -0.1576 76.5480751384 37.4833533104 16.3810127590 # F
95 1 2 -0.1576 77.5548175154 37.2995624766 15.5166366577 # F
96 1 1 0.3275 77.3639648706 37.9973649161 17.7451166871 # C
97 1 2 -0.1576 78.5003927406 37.2954193513 17.9721776030 # F
98 1 2 -0.1576 76.2371618311 38.0574837756 18.2666574306 # F
99 1 1 0.3275 77.7666314590 39.4605512300 17.5152005332 # C
100 1 2 -0.1576 76.7523600563 39.9534703868 17.3943354666 # F
101 1 2 -0.1576 78.9857138828 39.4655411770 18.1446918781 # F
102 1 1 0.3275 78.1906519223 39.9371281492 16.7223115561 # C
103 1 2 -0.1576 77.5743936776 41.0641927051 16.0839629766 # F
104 1 2 -0.1576 79.0269580524 40.4057107002 16.3071773481 # F
105 1 1 0.3275 78.8037492801 38.9804171145 16.0326026307 # C
106 1 2 -0.1576 79.7582208189 39.5919742934 15.5907897233 # F
107 1 2 -0.1576 78.2690144841 39.1457862278 15.3678112882 # F
108 1 1 0.3275 78.5321792901 37.8675400170 16.1836028767 # C
109 1 2 -0.1576 78.0083206136 38.1686147515 15.7268836458 # F
110 1 2 -0.1576 79.1004801139 37.3502601215 16.2372447730 # F
111 1 1 0.2465 78.3610040492 36.8661580184 15.5406584610 # C
112 1 2 -0.1336 78.2751105714 36.8300841352 14.4418763543 # F
113 1 2 -0.1336 78.1468164028 36.0392225838 16.1720274311 # F
114 1 1 0.1317 79.2285278786 37.3096760264 15.2304251447 # C
115 1 2 -0.1193 80.1454849888 36.6508458576 14.7073736974 # F
116 1 3 -0.3109 78.8113610953 37.6790474874 14.5464412353 # GFOc
117 1 1 0.4954 78.6814402051 37.4500065649 13.8081085580 # C
118 1 2 -0.1280 77.7110901135 37.4597975813 13.1490900095 # F
119 1 2 -0.1559 78.9502922327 37.8116814423 12.7634141146 # F
120 1 1 0.0465 79.0850516671 36.2018224033 13.6188976354 # C
121 1 2 -0.1122 79.1987040251 35.1240372877 14.4528890790 # F
122 1 1 0.5842 79.8190387070 36.1317728184 13.2167433281 # C
123 1 2 -0.1563 80.5614331331 36.9025579771 13.7744444307 # F
124 1 2 -0.1736 79.8604157823 36.4325562838 12.0563768713 # F
125 1 2 -0.1844 80.5989939398 35.1378580726 12.4952009066 # F
126 1 3 -0.2516 78.1851595287 35.8529470672 12.7827661347 # GFOc
127 1 1 0.4557 77.0318900906 36.2176153516 12.1039004029 # C
128 1 2 -0.1368 76.2534767267 35.9823748287 12.5150257646 # F
129 1 2 -0.1393 77.2040469669 36.8411973310 11.2677120096 # F
130 1 1 0.1062 77.3306508438 35.0199730921 11.2331889854 # C
131 1 2 -0.1457 76.7463534237 34.3110616585 11.5861344114 # F
132 1 2 -0.1482 77.0543824300 35.2411177035 10.2536133913 # F
133 1 4 1.1345 78.1836817692 35.0755189902 11.4286462922 # GGS
134 1 5 -0.6371 78.0215159339 34.2912599161 11.6715563675 # GOs
135 1 5 -0.6371 78.6699947880 35.8190338951 12.0242162023 # GOs
136 1 5 -0.6371 78.8409614063 34.4955272469 10.6878383190 # GOs
137 1 1 0.3275 79.6112957770 38.0401258373 16.0051081951 # C
138 1 2 -0.1576 80.2444488476 38.8154825941 15.0596822929 # F
139 1 2 -0.1576 79.0419421693 38.4695713995 17.0588610931 # F
140 1 1 0.3275 80.3375682557 37.5990702711 16.4485339318 # C
141 1 2 -0.1576 81.0043681485 37.5132249307 15.8154709067 # F
142 1 2 -0.1576 81.4518099199 37.6424159878 17.2172385833 # F
143 1 1 0.3275 79.9517499425 36.8968108255 17.3180943085 # C
144 1 2 -0.1576 80.2542754974 35.8581075329 17.1573610663 # F
145 1 2 -0.1576 80.3390059216 37.7098855040 18.0080118601 # F
146 1 1 0.3275 79.0666431445 35.9320049822 17.5604905212 # C
147 1 2 -0.1576 78.5882573701 36.1486936708 16.6148004134 # F
148 1 2 -0.1576 79.6686164129 35.0771923509 17.3832941666 # F
149 1 1 0.3275 78.5867261127 36.0583442073 18.8423094073 # C
150 1 2 -0.1576 79.3483572350 35.7359454953 19.5432313818 # F
151 1 2 -0.1576 78.0092649240 35.5449737357 19.6933396649 # F
152 1 1 0.3275 79.0849896114 36.9907133155 18.5941003765 # C
153 1 2 -0.1576 80.2993358504 36.4042417246 17.9116413771 # F
154 1 2 -0.1576 78.5552162503 37.4755785467 18.5487021364 # F
155 1 1 0.3275 79.6873347572 37.4211451622 19.4926155837 # C
156 1 2 -0.1576 79.6721813240 37.3789335677 20.6314895087 # F
157 1 2 -0.1576 80.6190299314 37.3642405805 19.4598802347 # F
158 1 1 0.3275 79.9666059620 38.4300242998 18.5250171348 # C
159 1 2 -0.1576 81.4177142122 37.7788053690 18.0697607045 # F
160 1 2 -0.1576 80.5761567107 39.3789710091 18.8743539917 # F
161 1 1 0.3275 78.9762017514 38.7227827728 18.2187224199 # C
162 1 2 -0.1576 79.3308655176 39.3744068090 17.2830029958 # F
163 1 2 -0.1576 78.2924576442 38.3775946100 18.7678441348 # F
164 1 1 0.3275 78.2793231119 38.9010608178 17.4748841979 # C
165 1 2 -0.1576 78.1875944673 38.5426168499 16.6123704954 # F
166 1 2 -0.1576 77.8801162188 39.4854982506 16.5983961540 # F
167 1 1 0.3275 77.5413633232 38.2866006370 18.3381732576 # C
168 1 2 -0.1576 77.5484092006 38.7990591872 19.0010143231 # F
169 1 2 -0.1576 77.7623133745 37.5537278293 18.5151659793 # F
170 1 1 0.3275 76.8188301086 37.8650406203 17.7238121334 # C
171 1 2 -0.1576 77.0130308962 37.4599935027 19.0750003154 # F
172 1 2 -0.1576 77.2519449382 38.0347876511 16.6128005400 # F
173 1 1 0.3275 76.2242606685 37.2718969178 17.3504405560 # C
174 1 2 -0.1576 75.6587099353 37.5996877565 16.3938291543 # F
175 1 2 -0.1576 76.1052148264 36.4337072326 17.6173746342 # F
176 1 1 0.3275 76.7362397601 36.4220621642 16.7363505236 # C
177 1 2 -0.1576 75.8550040490 36.7724386486 15.8339269077 # F
178 1 2 -0.1576 76.3811691443 35.4667327558 16.9785323378 # F
179 1 1 0.2465 77.7255716312 36.1074807222 16.9832289704 # C
180 1 2 -0.1336 77.8799919717 35.3422268850 16.0317304242 # F
181 1 2 -0.1336 79.0394723304 36.4714866379 16.7617707204 # F
182 1 1 0.1317 77.0348224062 35.1105213580 16.5928302733 # C
183 1 2 -0.1193 77.9907873734 34.6197570022 16.5271411323 # F
184 1 3 -0.3109 76.5367143394 35.4850837563 15.5996383502 # GFOc
185 1 1 0.4954 76.5595595480 35.9654834120 14.8526904071 # C
186 1 2 -0.1280 75.8505011212 35.2689156474 14.3166835698 # F
187 1 2 -0.1559 77.1442184766 36.6248132220 15.0837968083 # F
188 1 1 0.0465 76.1963489215 36.4679313011 14.2616162154 # C
189 1 2 -0.1122 76.5164348536 37.3858704045 14.4120786110 # F
190 1 1 0.5842 76.9531723473 36.0823153551 13.6398278783 # C
191 1 2 -0.1563 76.6582612463 36.6127383147 12.9169142657 # F
192 1 2 -0.1736 77.7213919748 36.3115181291 12.7830521988 # F
193 1 2 -0.1844 77.6244006850 35.2458055141 14.0625501233 # F
194 1 3 -0.2516 75.4474754753 36.2873285166 13.5637600014 # GFOc
195 1 1 0.4557 75.4075490270 36.6491277556 12.6700965892 # C
196 1 2 -0.1368 74.9014321538 36.6631456643 11.8709174653 # F
197 1 2 -0.1393 76.0680565816 37.0635105536 12.2855460811 # F
198 1 1 0.1062 75.2704096869 37.7636828872 12.4629071294 # C
199 1 2 -0.1457 75.1218042178 37.8993095545 11.3497762907 # F
200 1 2 -0.1482 76.2121566631 38.1248776437 12.8274539500 # F
201 1 4 1.1345 74.5208039341 37.2262834224 13.2072282538 # GGS
202 1 5 -0.6371 74.8628097996 37.9641025812 13.6131274473 # GOs
203 1 5 -0.6371 73.6976838627 36.9425865551 12.8038597587 # GOs
204 1 5 -0.6371 74.4846429535 36.4056626921 13.8772398127 # GOs
205 1 1 0.3275 76.3260115848 34.4548572587 16.7116207293 # C
206 1 2 -0.1576 76.5769213166 33.4558236097 15.8251126906 # F
207 1 2 -0.1576 75.4259189598 35.1169347601 16.7885737813 # F
208 1 1 0.3275 75.6169041124 33.7333679004 17.2020250552 # C
209 1 2 -0.1576 75.8561819953 33.2334258012 16.7218694039 # F
210 1 2 -0.1576 75.4230668270 33.7388231797 18.4004051247 # F
211 1 1 0.3275 74.6472922157 33.6235888913 17.3269661725 # C
212 1 2 -0.1576 74.7671904719 32.5493921572 17.8850936797 # F
213 1 2 -0.1576 74.3029924248 34.5131439727 18.5976478340 # F
214 1 1 0.3275 73.9331767875 32.9771994632 16.8904330183 # C
215 1 2 -0.1576 74.2775606420 32.1187269093 17.7873896724 # F
216 1 2 -0.1576 73.8641635405 33.2099249273 15.7444978883 # F
217 1 1 0.3275 73.0872085466 33.6167753866 16.5493542721 # C
218 1 2 -0.1576 72.5925347126 34.3600882508 16.2860798246 # F
219 1 2 -0.1576 73.6973795236 34.6416980844 17.1173293451 # F
220 1 1 0.3275 72.5060684810 32.7605641306 15.4016086664 # C
221 1 2 -0.1576 73.1348156056 31.6346646309 15.0933324333 # F
222 1 2 -0.1576 73.3534518807 33.1888426879 14.8625397220 # F
223 1 1 0.3275 71.7664103026 32.8823066269 14.7575093309 # C
224 1 2 -0.1576 71.1806744021 33.3635381757 14.8808653596 # F
225 1 2 -0.1576 72.5688153613 32.7697501197 14.3907450457 # F
226 1 1 0.3275 71.5454033511 31.8296866041 14.4299596244 # C
227 1 2 -0.1576 72.0914003481 31.3557282497 14.1721744484 # F
228 1 2 -0.1576 71.0028503946 32.0725697218 13.8967325240 # F
229 1 1 0.3275 70.4370976324 31.1667086965 14.5840574006 # C
230 1 2 -0.1576 70.8996545153 30.3076587705 14.7772665411 # F
231 1 2 -0.1576 69.7666319678 31.8193954952 14.0530361282 # F
232 1 1 0.3275 70.0175893421 31.7965454388 15.3659898498 # C
233 1 2 -0.1576 68.8900799494 31.2271018399 14.6962484274 # F
234 1 2 -0.1576 69.9453060749 31.5300608988 16.3028191901 # F
235 1 1 0.3275 70.4074431549 32.9474135292 15.5084162854 # C
236 1 2 -0.1576 70.2442002349 34.0074921858 15.7648847140 # F
237 1 2 -0.1576 70.8723746631 32.6815117654 14.5180393663 # F
238 1 1 0.3275 71.0739491863 33.3677168712 16.5337801140 # C
239 1 2 -0.1576 70.1818447566 33.3672702042 17.4035065140 # F
240 1 2 -0.1576 72.1910997190 33.6149279978 15.6161501562 # F
241 1 1 0.3275 71.4359010174 33.5718575710 17.2616459137 # C
242 1 2 -0.1576 72.6219744798 33.5291754626 17.2765563542 # F
243 1 2 -0.1576 71.0886533987 33.2937022684 17.9367831816 # F
244 1 1 0.3275 70.8166518120 34.0755864405 17.2361227495 # C
245 1 2 -0.1576 70.5350520199 34.6515126626 15.8020569355 # F
246 1 2 -0.1576 70.4793372014 34.5956066447 18.0016907707 # F
247 1 1 0.2465 71.0414295914 35.1212366200 17.2416137467 # C
248 1 2 -0.1336 70.5621575992 35.7490010874 16.6691339753 # F
249 1 2 -0.1336 71.7840688709 34.5989495891 17.0676603681 # F
250 1 1 0.1317 70.6038187318 36.1680681795 17.2812173396 # C
251 1 2 -0.1193 71.7901057137 36.7379442960 17.7179395295 # F
252 1 3 -0.3109 69.8542904315 35.5296247893 16.5506426673 # GFOc
253 1 1 0.4954 69.3697239358 35.1580270811 15.5338498934 # C
254 1 2 -0.1280 68.6431739541 35.8635220361 14.7567799373 # F
255 1 2 -0.1559 70.2654001488 35.2100746851 15.4060340179 # F
256 1 1 0.0465 68.9296333478 34.4837161138 15.2633659409 # C
257 1 2 -0.1122 68.2932509011 35.2758368918 15.7316313533 # F
258 1 1 0.5842 69.6513075362 34.8224503622 14.7506928037 # C
259 1 2 -0.1563 69.5813653372 35.9520107246 14.4505442938 # F
260 1 2 -0.1736 70.4348401933 34.6148614307 14.5258878510 # F
261 1 2 -0.1844 70.0051761766 34.5681170618 13.6866998898 # F
262 1 3 -0.2516 68.4797026710 33.7023146960 15.9476380626 # GFOc
263 1 1 0.4557 67.9309477976 32.9198823747 16.7552856732 # C
264 1 2 -0.1368 67.1575284805 32.0849868824 16.5565621584 # F
265 1 2 -0.1393 68.6580721278 32.0758590554 16.6951594487 # F
266 1 1 0.1062 67.9506155413 33.8548461530 17.6541050232 # C
267 1 2 -0.1457 68.8373740502 34.0952371402 17.4430320241 # F
268 1 2 -0.1482 67.6701570476 33.4216375990 18.2530635182 # F
269 1 4 1.1345 68.1983086811 34.9474377128 17.2623602679 # GGS
270 1 5 -0.6371 69.5971802697 34.7489925182 16.6669613551 # GOs
271 1 5 -0.6371 67.7724352376 36.0594940446 17.6906445906 # GOs
272 1 5 -0.6371 67.5653219793 34.2543650140 16.8751932806 # GOs
273 1 1 0.3275 70.0125378443 37.0654834841 16.7409628279 # C
274 1 2 -0.1576 70.4385087058 37.4591876868 15.7958290754 # F
275 1 2 -0.1576 68.9681697903 36.4341607677 16.5345325688 # F
276 1 1 0.3275 69.1108744964 38.7136321494 16.8962664462 # C
277 1 2 -0.1576 68.8026936143 38.5649228998 17.8884148631 # F
278 1 2 -0.1576 70.1852029011 39.5527830252 16.6183790215 # F
279 1 1 0.3275 68.7039459682 38.8383740778 16.2073306537 # C
280 1 2 -0.1576 68.4897026680 38.0642817227 16.9390172638 # F
281 1 2 -0.1576 69.2553233317 39.8609416427 15.8696517313 # F
282 1 1 0.3275 67.7443565940 38.8815857944 15.4033768428 # C
283 1 2 -0.1576 67.5651885521 37.8428064010 15.9853972004 # F
284 1 2 -0.1576 68.0357314256 38.2762153677 14.3407361641 # F
285 1 1 0.3275 67.5980881025 39.7152717226 15.5322275614 # C
286 1 2 -0.1576 68.5877828426 40.7943119183 15.2707990789 # F
287 1 2 -0.1576 66.9551890861 40.3257324990 14.8412254716 # F
288 1 1 0.3275 67.4851805613 39.7264110916 16.5551755960 # C
289 1 2 -0.1576 67.9807913777 39.8336757214 17.4203784296 # F
290 1 2 -0.1576 66.8936944998 40.2216030456 17.2459079933 # F
291 1 1 0.3275 66.7710378233 39.0482678690 16.2037321848 # C
292 1 2 -0.1576 66.7776260176 38.3944369413 15.1393044524 # F
293 1 2 -0.1576 65.9379373297 39.4757929058 16.0330051161 # F
294 1 1 0.3275 66.8796509007 38.3073604588 16.8707251343 # C
295 1 2 -0.1576 68.1037739435 39.0026592181 17.5421257355 # F
296 1 2 -0.1576 66.3675954480 37.5105853070 16.2809634697 # F
297 1 1 0.3275 65.9750080717 38.3872161378 17.3801163062 # C
298 1 2 -0.1576 64.6591769889 38.5170577629 17.2433441765 # F
299 1 2 -0.1576 66.4011635028 39.3622004166 17.9565664669 # F
300 1 1 0.3275 65.4698342264 37.7078050327 17.7461638673 # C
301 1 2 -0.1576 65.0751750724 36.7211370007 17.1488604063 # F
302 1 2 -0.1576 65.9592150394 36.8758051740 17.9669391233 # F
303 1 1 0.3275 64.7469111016 38.0565939280 18.2273557156 # C
304 1 2 -0.1576 64.7734415272 38.6092450728 18.9797669140 # F
305 1 2 -0.1576 64.0061701628 37.8449478033 18.7494521478 # F
306 1 1 0.3275 65.5509131074 38.6988552103 18.2409976074 # C
307 1 2 -0.1576 65.1309471285 39.5406265181 19.1216303318 # F
308 1 2 -0.1576 65.5538656471 39.3447960668 17.4713463923 # F
309 1 1 0.3275 66.5954287955 38.1873681639 18.4598460264 # C
310 1 2 -0.1576 67.2385549782 38.9266608204 19.0826725810 # F
311 1 2 -0.1576 67.4050255010 37.5546768216 17.7345518820 # F
312 1 1 0.3275 66.0163450604 37.3385365571 18.4448427139 # C
313 1 2 -0.1576 66.5062132155 36.7821542143 17.4633896256 # F
314 1 2 -0.1576 65.0748387374 36.9608147394 18.3926877058 # F
315 1 1 0.2465 65.8244182620 36.8174358418 19.5661626323 # C
316 1 2 -0.1336 65.4129125008 36.5509902982 19.0764692202 # F
317 1 2 -0.1336 66.9043290878 37.0198122665 19.7008766027 # F
318 1 1 0.1317 65.6307425436 36.2953780161 20.6401535309 # C
319 1 2 -0.1193 65.8601929818 35.2404392314 21.5382580099 # F
320 1 3 -0.3109 64.7105721833 37.2776543568 20.9100463245 # GFOc
321 1 1 0.4954 65.3556331162 37.8334552957 19.8302498452 # C
322 1 2 -0.1280 64.5108756717 37.2995923720 19.6024094917 # F
323 1 2 -0.1559 66.1035029401 38.2121039424 18.9993614747 # F
324 1 1 0.0465 65.8631844703 38.3842559466 21.0025678675 # C
325 1 2 -0.1122 65.1562784128 38.6370336611 21.1017979968 # F
326 1 1 0.5842 64.8690750662 38.2934784709 21.9068912559 # C
327 1 2 -0.1563 64.0861951161 38.7833648400 21.3079265384 # F
328 1 2 -0.1736 65.1698870549 39.0738105240 22.7610890521 # F
329 1 2 -0.1844 64.2655345955 37.6695758181 22.3216745564 # F
330 1 3 -0.2516 66.6888598525 38.8818526255 21.1574227374 # GFOc
331 1 1 0.4557 66.9527201502 38.7979368768 20.1640563565 # C
332 1 2 -0.1368 66.1991375928 39.1520099097 19.7876273685 # F
333 1 2 -0.1393 67.3271877978 37.8427474315 19.7022147952 # F
334 1 1 0.1062 67.8095947673 39.6441346673 19.8400748395 # C
335 1 2 -0.1457 67.2980180207 39.7492234245 18.7423879821 # F
336 1 2 -0.1482 68.2639502354 39.0141720948 19.6831801117 # F
337 1 4 1.1345 68.6848172363 39.9484374543 20.6428724971 # GGS
338 1 5 -0.6371 69.2367121293 40.9438998012 20.3678847565 # GOs
339 1 5 -0.6371 69.2331792467 39.1059996840 21.0124100934 # GOs
340 1 5 -0.6371 68.4946834930 40.1835977535 21.7916958545 # GOs
341 1 1 0.3275 66.0039341520 36.9053032624 21.1993212642 # C
342 1 2 -0.1576 65.6052381196 37.5267985914 21.8560353542 # F
343 1 2 -0.1576 66.3460512332 37.7995922758 20.4799655406 # F
344 1 1 0.3275 66.2736000763 36.5057307088 22.1165220241 # C
345 1 2 -0.1576 67.4972633608 35.9857523732 22.3744874639 # F
346 1 2 -0.1576 65.9718866753 37.0967586747 22.9985840200 # F
347 1 1 0.3275 65.7805972804 35.5033409580 22.2524291230 # C
348 1 2 -0.1576 66.6009859305 34.5627373631 22.6999224493 # F
349 1 2 -0.1576 65.3387096609 35.3877467241 23.3100518442 # F
350 1 1 0.3275 64.7381586516 35.1279025514 22.2747823395 # C
351 1 2 -0.1576 63.6151605945 35.1276957900 22.8944898008 # F
352 1 2 -0.1576 64.5774394610 34.2214652760 22.9464943150 # F
353 1 1 0.3275 65.5306218122 34.8895993592 21.3430923153 # C
354 1 2 -0.1576 65.4499863824 33.8107324663 21.3209660923 # F
355 1 2 -0.1576 64.8682255723 35.2762548740 20.2612602229 # F
356 1 1 0.3275 66.5850758877 35.3516356190 21.2558677006 # C
357 1 2 -0.1576 67.5385616988 34.1699749619 21.0788481401 # F
358 1 2 -0.1576 66.8007695815 36.0613087715 20.4307928321 # F
359 1 1 0.3275 67.3564878552 36.2201051558 21.5825439722 # C
360 1 2 -0.1576 67.2866460320 35.0093119615 22.0539739468 # F
361 1 2 -0.1576 67.0106234538 37.3846116182 20.9451956199 # F
362 1 1 0.3275 68.0397178737 36.4927971078 22.8829981811 # C
363 1 2 -0.1576 67.4240123811 36.8993427851 23.8697037115 # F
364 1 2 -0.1576 68.9975453871 36.1375499297 23.3826593015 # F
365 1 1 0.3275 68.4773010344 37.2147423168 22.2817274095 # C
366 1 2 -0.1576 67.6609694052 37.7447959673 22.3508079051 # F
367 1 2 -0.1576 69.3222609921 37.8059457855 23.0076372679 # F
368 1 1 0.3275 68.9059783406 36.6869202153 21.8654338376 # C
369 1 2 -0.1576 69.8837073214 36.6257687638 22.4868303292 # F
370 1 2 -0.1576 68.4901315152 35.7473906549 21.9816031738 # F
371 1 1 0.3275 68.9466548940 35.8740032475 20.5722437442 # C
372 1 2 -0.1576 70.0880689892 35.2379685548 20.4669811276 # F
373 1 2 -0.1576 68.4701069216 35.8306755519 21.0551397472 # F
374 1 1 0.3275 68.1802115702 36.2375352808 19.6765157196 # C
375 1 2 -0.1576 67.7744991767 36.5477150469 20.5741875536 # F
376 1 2 -0.1576 69.1052271862 36.8373793235 19.6490965919 # F
377 1 1 0.3275 67.5206045054 36.1763970199 19.2193892672 # C
378 1 2 -0.1576 66.2839057454 36.1689562155 19.1593023303 # F
379 1 2 -0.1576 67.7252135225 37.0342479861 19.6016360462 # F
380 1 1 0.3275 67.6331736790 35.7346518823 18.4220297423 # C
381 1 2 -0.1576 67.6634454637 36.6860160560 18.1399828957 # F
382 1 2 -0.1576 67.6088412711 34.6012669256 17.7466632720 # F
383 1 1 0.2465 67.2927936051 34.7590687533 18.6878487141 # C
384 1 2 -0.1336 67.6446640743 35.1912986455 19.6276026956 # F
385 1 2 -0.1336 67.8993397768 33.7901602773 19.2134238722 # F
386 1 1 0.1317 66.4866322697 34.7564941374 18.8102449201 # C
387 1 2 -0.1193 65.4678844550 34.5520869330 18.3489863500 # F
388 1 3 -0.3109 66.5570880184 35.5936143602 18.1714543313 # GFOc
389 1 1 0.4954 66.7399362150 36.6128155518 18.4458018738 # C
390 1 2 -0.1280 67.3591298289 36.8198353927 18.8496982011 # F
391 1 2 -0.1559 65.9051567708 37.1633492563 18.9814063853 # F
392 1 1 0.0465 67.0516995855 36.9049874855 17.1245103082 # C
393 1 2 -0.1122 66.7640048314 36.9915129376 15.8509194986 # F
394 1 1 0.5842 65.7648591170 36.6809566042 16.8499523355 # C
395 1 2 -0.1563 65.1818638748 36.5926105182 16.0622192990 # F
396 1 2 -0.1736 65.2950276337 37.5615875211 16.9368840154 # F
397 1 2 -0.1844 65.3734411809 35.7942602729 17.4415311377 # F
398 1 3 -0.2516 67.9569385403 37.1859070383 17.2752346392 # GFOc
399 1 1 0.4557 68.4798491511 35.9985430256 17.5989242626 # C
400 1 2 -0.1368 68.5992908513 34.8045029952 18.0631444108 # F
401 1 2 -0.1393 67.6590473348 35.9473979223 16.6098183556 # F
402 1 1 0.1062 69.1946205267 36.6308820505 18.2633809386 # C
403 1 2 -0.1457 68.8592942814 37.6812783604 17.9695130162 # F
404 1 2 -0.1482 69.7549581344 37.4700443794 17.8408247840 # F
405 1 4 1.1345 69.3325956170 35.7484082278 18.7090412300 # GGS
406 1 5 -0.6371 69.5229849443 34.6711777341 18.3860650425 # GOs
407 1 5 -0.6371 68.6214424360 35.6194720029 19.1695364318 # GOs
408 1 5 -0.6371 69.7591342684 35.9517243375 19.7966315164 # GOs
409 1 1 0.3275 66.1797182139 34.7540184954 19.7518137868 # C
410 1 2 -0.1576 66.5008268152 33.9726751968 20.3234504769 # F
411 1 2 -0.1576 66.4771037976 35.6268809641 19.7034365068 # F
412 1 1 0.3275 65.0336994682 34.9038854026 19.4318769849 # C
413 1 2 -0.1576 64.7146025809 35.9677376417 19.5123973117 # F
414 1 2 -0.1576 64.3169206754 34.5533513663 19.5536453035 # F
415 1 1 0.3275 65.1269448906 34.0954585505 18.9859258335 # C
416 1 2 -0.1576 63.9669378860 34.1082519099 19.1375002921 # F
417 1 2 -0.1576 66.4561339289 33.9382865578 19.3389697846 # F
418 1 1 0.3275 65.2626506522 33.1452520995 19.3753772389 # C
419 1 2 -0.1576 65.3771819367 31.8050464413 18.9956617817 # F
420 1 2 -0.1576 65.1113851732 33.5375157743 20.2856738749 # F
421 1 1 0.3275 64.1791122083 32.8571080668 18.8422497203 # C
422 1 2 -0.1576 64.3185464800 32.2824390350 17.9955724083 # F
423 1 2 -0.1576 63.2940681802 33.4043517745 19.7652438942 # F
424 1 1 0.3275 63.6990488854 33.3890573623 17.7412035727 # C
425 1 2 -0.1576 62.8212620620 33.7145373926 16.9647288764 # F
426 1 2 -0.1576 64.8627159960 34.2360515305 17.8900696514 # F
427 1 1 0.3275 63.3023850782 32.5577602811 17.5181456912 # C
428 1 2 -0.1576 63.5251706538 31.7185636343 17.5719125129 # F
429 1 2 -0.1576 62.7810677455 32.2138380043 18.3156414987 # F
430 1 1 0.3275 63.1550010067 32.7737481601 16.2167452773 # C
431 1 2 -0.1576 62.0628152713 32.2663901264 15.6807610807 # F
432 1 2 -0.1576 63.3652087582 33.8428655024 16.0943309107 # F
433 1 1 0.3275 64.1376045564 32.5412724396 15.9729428427 # C
434 1 2 -0.1576 65.2698978551 33.1087284374 16.0337088779 # F
435 1 2 -0.1576 63.6476140185 32.2032029831 16.7055690087 # F
436 1 1 0.3275 64.5244991885 32.5822937100 14.5744486784 # C
437 1 2 -0.1576 64.3391834879 32.8134345508 13.2926348296 # F
438 1 2 -0.1576 64.5049033919 33.5725914609 14.9355433213 # F
439 1 1 0.3275 64.4156252590 31.5390369751 14.9833819376 # C
440 1 2 -0.1576 65.1600620341 30.7786108963 14.4877146876 # F
441 1 2 -0.1576 63.2462215346 30.8278336639 14.5277609016 # F
442 1 1 0.3275 64.8096468373 31.4029905599 16.0647485974 # C
443 1 2 -0.1576 66.2302324237 31.3892095062 16.2576356954 # F
444 1 2 -0.1576 65.2199720991 32.2972785308 15.7194110478 # F
445 1 1 0.3275 63.9323082835 31.5572834697 16.9764624336 # C
446 1 2 -0.1576 64.6206153911 31.7854296945 17.6111092987 # F
447 1 2 -0.1576 63.8476755937 31.0431320632 16.2770530262 # F
448 1 1 0.3275 62.9821031101 31.3276088903 16.8940031072 # C
449 1 2 -0.1576 63.5364262875 30.4115417568 16.1773512434 # F
450 1 2 -0.1576 62.9242523993 30.6772649453 18.1208041707 # F
451 1 1 0.2465 62.2070771267 31.8754971710 16.5874915162 # C
452 1 2 -0.1336 61.2035213366 31.5505964250 15.8492308505 # F
453 1 2 -0.1336 62.0844405322 31.7435250740 17.8736904678 # F
454 1 1 0.1317 61.9578237843 33.2375198531 16.6991462920 # C
455 1 2 -0.1193 62.6331454898 34.2774616088 17.0388130915 # F
456 1 3 -0.3109 61.4599531080 33.2968983716 15.9185340026 # GFOc
457 1 1 0.4954 60.8320378036 32.9003916932 15.7050998225 # C
458 1 2 -0.1280 60.0840011826 32.7076734453 15.2597271439 # F
459 1 2 -0.1559 60.1926876695 33.3796877222 16.6029173492 # F
460 1 1 0.0465 60.9577897094 32.0636121727 16.7439676679 # C
461 1 2 -0.1122 60.5930208227 31.9035596188 15.6113354765 # F
462 1 1 0.5842 61.3166320337 31.7252522095 17.7400399149 # C
463 1 2 -0.1563 61.4545162871 30.7770257499 17.2119649916 # F
464 1 2 -0.1736 62.6484997661 32.3392637209 17.3502593395 # F
465 1 2 -0.1844 60.9764304566 32.0772614652 18.7904715648 # F
466 1 3 -0.2516 60.4262666033 31.8932760541 17.1618969358 # GFOc
467 1 1 0.4557 59.7256990379 32.4911303310 18.1634552981 # C
468 1 2 -0.1368 59.4646064043 33.5850530649 17.7058305767 # F
469 1 2 -0.1393 59.0105703633 31.9440992152 17.4184036241 # F
470 1 1 0.1062 59.4041351692 32.1901450117 18.9775074945 # C
471 1 2 -0.1457 60.0848655273 32.1478330148 19.6391245585 # F
472 1 2 -0.1482 58.8273820857 33.1961100422 19.5288388852 # F
473 1 4 1.1345 58.4585239461 31.9361834727 19.1107964925 # GGS
474 1 5 -0.6371 58.2185622318 32.1918483015 20.2184592432 # GOs
475 1 5 -0.6371 58.5096620806 30.8679769216 18.6393345423 # GOs
476 1 5 -0.6371 57.5450790079 31.7429009595 18.2483924829 # GOs