LAMMPS output created by EMC v9.4.4, build Aug 20 2021 07:52:44

       18145  atoms
6447 bonds
10220 angles
13377 dihedrals

           9  atom types
           6  bond types
          11  angle types
          12  dihedral types

             0    119.8556255  xlo xhi
             0    46.13361697  ylo yhi
             0    46.13361697  zlo zhi

Masses

       1   12.01115  # C
       2   18.99840  # F
       3   15.99940  # GFOc
       4   32.06400  # GGS
       5   15.99940  # GOs      
	   6    22.990 	 # Na
       7   195.09  # P
       8   1.00797  # WH
       9   15.99940 # WO

Atoms

1 1 1 0.3275 63.0484209723 37.6709820618 28.9384780632 # C
2 1 2 -0.1576 62.4613284101 36.9454621139 28.9224049276 # F
3 1 2 -0.1576 62.2304405837 38.2743979527 28.4287594942 # F
4 1 1 0.3275 63.8634455416 37.4699109142 28.4843121686 # C
5 1 2 -0.1576 64.0922897082 38.3139872600 27.5220097109 # F
6 1 2 -0.1576 63.7757003603 36.8386590060 27.1770391909 # F
7 1 1 0.3275 64.6492631282 37.2469225967 29.2198217324 # C
8 1 2 -0.1576 64.4631584839 37.4558401802 30.1215918099 # F
9 1 2 -0.1576 65.1091210063 35.9358703391 28.6530910463 # F
10 1 1 0.3275 65.7668306064 37.1162554359 29.3086717107 # C
11 1 2 -0.1576 66.2533088853 36.6057635948 30.3118366071 # F
12 1 2 -0.1576 66.1353008411 37.7834324757 29.0175582697 # F
13 1 1 0.3275 66.2252059408 36.1075440849 28.5662641669 # C
14 1 2 -0.1576 66.4584090363 35.1217376623 29.1870302193 # F
15 1 2 -0.1576 66.8576304792 37.0292201243 28.1174123851 # F
16 1 1 0.3275 65.6500408729 35.4205524662 27.8627374841 # C
17 1 2 -0.1576 65.1801300262 35.5571360050 27.2019439536 # F
18 1 2 -0.1576 66.2423275042 34.5534319781 27.6050738854 # F
19 1 1 0.3275 64.4967725172 34.6134881022 27.8223148254 # C
20 1 2 -0.1576 63.1922796704 33.7438765690 27.5457941138 # F
21 1 2 -0.1576 63.6508258857 35.0780205236 27.7063602003 # F
22 1 1 0.3275 64.7926206913 34.1537446112 28.2428189574 # C
23 1 2 -0.1576 64.1724283427 33.3046006720 28.1020748716 # F
24 1 2 -0.1576 64.6159523449 34.6484646123 29.4517534165 # F
25 1 1 0.3275 66.0778007693 33.9795044231 28.1970232317 # C
26 1 2 -0.1576 66.7523556299 34.5699089289 28.5161729909 # F
27 1 2 -0.1576 66.0448425750 33.3104791315 28.7852959727 # F
28 1 1 0.3275 66.9373783087 33.4851967451 27.6209674964 # C
29 1 2 -0.1576 66.6627917588 32.5118567403 27.9962762845 # F
30 1 2 -0.1576 67.8296662511 33.2941222008 27.9309268563 # F
31 1 1 0.3275 66.7983358069 33.7679883728 26.1813135145 # C
32 1 2 -0.1576 66.0486387034 34.4655862059 26.0785464613 # F
33 1 2 -0.1576 67.6495065143 32.9161650929 26.2995677977 # F
34 1 1 0.3275 67.0862657036 34.4113930490 25.5794651785 # C
35 1 2 -0.1576 68.1260280361 35.3438517993 26.2140570714 # F
36 1 2 -0.1576 67.3780905126 33.4625218633 24.7764196291 # F
37 1 1 0.3275 66.9166540031 35.0980799132 24.7436606961 # C
38 1 2 -0.1576 67.9054235876 35.7693498660 24.9351140297 # F
39 1 2 -0.1576 67.7223088661 34.2638621635 24.2708832927 # F
40 1 1 0.3275 66.4518032686 36.1816219913 24.0957033976 # C
41 1 2 -0.1576 66.3180433497 35.7610517481 22.7808801419 # F
42 1 2 -0.1576 65.8629247129 35.1461473970 24.2385537282 # F
43 1 1 0.2465 65.9096802850 36.9105943910 24.3634387883 # C
44 1 2 -0.1336 66.4793805570 36.5170831096 25.3700509245 # F
45 1 2 -0.1336 65.0971858800 37.7557179848 24.1338865803 # F
46 1 1 0.1317 66.3652110858 37.1515701943 23.7058635561 # C
47 1 2 -0.1193 66.9566610591 37.7633462360 24.5155263726 # F
48 1 3 -0.3109 66.8269188550 38.1389741079 22.8778593037 # GFOc
49 1 1 0.4954 67.5534904057 39.1386651161 23.2531238846 # C
50 1 2 -0.1280 68.3036457939 38.1876080777 23.6440755714 # F
51 1 2 -0.1559 68.3859482769 39.2318376486 22.2745781111 # F
52 1 1 0.0465 68.1311721178 40.4295303007 23.3913637869 # C
53 1 2 -0.1122 67.5211543005 40.8018630792 24.0524809988 # F
54 1 1 0.5842 69.0783081911 40.3653613711 22.7648070678 # C
55 1 2 -0.1563 70.1372411566 40.6605060876 23.4523428974 # F
56 1 2 -0.1736 68.6356396287 40.9946207697 21.9615935032 # F
57 1 2 -0.1844 69.5668948989 39.5406101529 21.8812378180 # F
58 1 3 -0.2516 68.2493654353 41.5952148335 22.9825547944 # GFOc
59 1 1 0.4557 67.8369709045 42.0619884934 24.4367871921 # C
60 1 2 -0.1368 67.0853376040 41.6453738399 24.9830061590 # F
61 1 2 -0.1393 66.9497364777 42.9300303045 24.3436856355 # F
62 1 1 0.1062 68.8305285314 41.7347716605 24.5557274552 # C
63 1 2 -0.1457 68.5827301948 41.0144564404 23.7027317524 # F
64 1 2 -0.1482 68.7158898538 41.2370884578 25.8561517988 # F
65 1 4 1.1345 69.4926503755 42.6613933217 24.2598947947 # GGS
66 1 5 -0.6371 70.3692890326 43.1264356896 24.4590707927 # GOs
67 1 5 -0.6371 70.0677392517 42.2958059441 23.3996272878 # GOs
68 1 5 -0.6371 68.6184964095 43.3293350310 24.3845190759 # GOs
69 1 1 0.3275 66.1375425877 36.7633650874 22.3235586857 # C
70 1 2 -0.1576 65.3824092636 36.2437720328 22.8225334611 # F
71 1 2 -0.1576 66.7010120914 37.7269927264 21.7317491211 # F
72 1 1 0.3275 66.0958470024 36.7935720344 21.5529848797 # C
73 1 2 -0.1576 65.8039892548 37.6661001139 21.7287277498 # F
74 1 2 -0.1576 66.1813274476 37.2324577669 20.4355052669 # F
75 1 1 0.3275 66.4446553922 35.7702216010 21.2375368819 # C
76 1 2 -0.1576 65.4852002981 35.4777419447 21.9106581365 # F
77 1 2 -0.1576 67.9780463150 36.2308413898 20.7465882951 # F
78 1 1 0.3275 65.7445649118 34.8983810694 20.8673481340 # C
79 1 2 -0.1576 65.3601459948 34.7566245565 21.6712710739 # F
80 1 2 -0.1576 64.4959741280 35.3219212381 20.6806606754 # F
81 1 1 0.3275 66.1081871885 34.2707459916 20.1466807502 # C
82 1 2 -0.1576 66.6111870631 33.7725201011 21.0634901984 # F
83 1 2 -0.1576 66.7840492901 34.7961351897 19.9539774441 # F
84 1 1 0.3275 65.4275527948 33.8051921776 20.0273813385 # C
85 1 2 -0.1576 65.2856974235 32.9426189406 20.7835595770 # F
86 1 2 -0.1576 64.8392045316 34.3846640334 20.8605871772 # F
87 1 1 0.3275 65.5272189220 33.8389035131 18.7020811040 # C
88 1 2 -0.1576 64.7878288585 33.5084843646 18.1467805387 # F
89 1 2 -0.1576 65.1447926468 34.6592204070 19.2039867861 # F
90 1 1 0.3275 66.4315775312 32.6879868993 18.7065849704 # C
91 1 2 -0.1576 67.0883167032 33.0308409794 19.7617437075 # F
92 1 2 -0.1576 67.7098807288 33.1387738678 18.4913583543 # F
93 1 1 0.3275 65.8215902546 31.6289453054 19.6122967103 # C
94 1 2 -0.1576 66.5445183667 31.3668548195 20.2121389862 # F
95 1 2 -0.1576 65.2283753396 32.0097561049 20.3711788156 # F
96 1 1 0.3275 64.9954349008 30.6436458241 19.5166610145 # C
97 1 2 -0.1576 64.3461287022 30.5720825229 20.1085687301 # F
98 1 2 -0.1576 65.1039149058 30.1461073928 19.4754163242 # F
99 1 1 0.3275 64.5914119432 30.1162161642 18.0640591002 # C
100 1 2 -0.1576 63.9299369550 28.8980831941 17.7405144204 # F
101 1 2 -0.1576 64.8999424489 29.3373772627 17.2519308877 # F
102 1 1 0.3275 64.4064980152 30.7860312435 17.1795512283 # C
103 1 2 -0.1576 64.1583186509 31.5047935684 16.5174740584 # F
104 1 2 -0.1576 65.2620161985 29.9844126283 16.9813790968 # F
105 1 1 0.3275 62.9951019642 30.1266110833 17.1613815484 # C
106 1 2 -0.1576 63.3365690113 29.4519850061 16.3856502472 # F
107 1 2 -0.1576 62.1100642951 30.9016250353 16.3347962964 # F
108 1 1 0.3275 62.3596515486 30.1896520638 18.3021593332 # C
109 1 2 -0.1576 61.6112286602 29.5193999613 18.3360023106 # F
110 1 2 -0.1576 62.5928791963 30.0177496271 19.3625895128 # F
111 1 1 0.2465 62.5210311745 31.3180205489 18.6982406307 # C
112 1 2 -0.1336 62.2049703940 30.8975374806 19.4992824569 # F
113 1 2 -0.1336 62.7464705075 31.1104044091 20.1057306708 # F
114 1 1 0.1317 62.0925030506 31.9119312465 18.0210902391 # C
115 1 2 -0.1193 62.5222590056 31.8800523435 17.2634198134 # F
116 1 3 -0.3109 61.9959259170 32.9326119848 18.5297153917 # GFOc
117 1 1 0.4954 61.8342703431 33.8779663696 19.3506192971 # C
118 1 2 -0.1280 61.7078867828 34.8682896008 20.0941475314 # F
119 1 2 -0.1559 60.8157614495 34.2533889861 18.6636011285 # F
120 1 1 0.0465 62.9313553169 33.7547035304 20.0348795336 # C
121 1 2 -0.1122 63.4566657580 32.9422026470 20.3252088516 # F
122 1 1 0.5842 62.7030624882 33.8481138117 21.2469769149 # C
123 1 2 -0.1563 63.8176764194 33.4404579139 22.0057678966 # F
124 1 2 -0.1736 62.7740915898 34.5468504089 21.2487164739 # F
125 1 2 -0.1844 61.9693463895 33.3845796420 21.7984589564 # F
126 1 3 -0.2516 63.1923563892 35.2813273917 20.3976302958 # GFOc
127 1 1 0.4557 63.3407210506 36.1913245620 20.9649340951 # C
128 1 2 -0.1368 63.3888685770 35.5728609385 21.8995128376 # F
129 1 2 -0.1393 62.2920814578 36.3696814597 21.4872771895 # F
130 1 1 0.1062 64.1117450243 36.7579702347 20.7169044486 # C
131 1 2 -0.1457 64.9151148094 36.4340574677 21.2451883033 # F
132 1 2 -0.1482 64.5170886675 37.6338724026 20.6987195671 # F
133 1 4 1.1345 64.0346294445 37.0918118347 19.5636736342 # GGS
134 1 5 -0.6371 64.5678815931 36.4733068792 19.2152714540 # GOs
135 1 5 -0.6371 63.9716159643 38.2498448394 19.2554821547 # GOs
136 1 5 -0.6371 63.8958742742 36.7835452785 18.6036707525 # GOs
137 1 1 0.3275 61.1438097952 30.8794980985 17.9482752267 # C
138 1 2 -0.1576 60.5338807122 31.5903629513 17.5835087375 # F
139 1 2 -0.1576 60.9491361174 30.0030024607 18.3886512004 # F
140 1 1 0.3275 61.4903274406 30.4258944548 17.3053294497 # C
141 1 2 -0.1576 60.7531181998 30.9302608881 16.1784517906 # F
142 1 2 -0.1576 61.0221111638 29.0992659754 17.3064262354 # F
143 1 1 0.3275 62.5824361979 30.8649812252 17.1925916685 # C
144 1 2 -0.1576 63.4602504677 30.8928261212 16.3047960704 # F
145 1 2 -0.1576 62.8198078321 30.5462333350 18.2072953205 # F
146 1 1 0.3275 63.2126859151 32.0565127536 16.7865771905 # C
147 1 2 -0.1576 63.4310469943 31.8252227566 15.6942817701 # F
148 1 2 -0.1576 62.6349824468 32.0568397504 16.3505009884 # F
149 1 1 0.3275 63.8459687601 32.2705459287 17.4367272588 # C
150 1 2 -0.1576 63.8637874233 33.2073279071 17.9693348129 # F
151 1 2 -0.1576 63.8839718380 31.3628719657 18.1752975802 # F
152 1 1 0.3275 64.3212275334 32.3719292546 16.5813176263 # C
153 1 2 -0.1576 63.5089572035 32.7232844724 16.3801903498 # F
154 1 2 -0.1576 64.5554795118 31.6494781008 17.3531627830 # F
155 1 1 0.3275 64.9705987873 32.7436047993 15.6823610421 # C
156 1 2 -0.1576 64.4147167085 33.8329244949 15.4815596299 # F
157 1 2 -0.1576 65.0226701667 31.6838716836 15.7526905387 # F
158 1 1 0.3275 65.8810138048 33.0906901769 15.0861303790 # C
159 1 2 -0.1576 65.7572169770 33.6770560763 13.6328858108 # F
160 1 2 -0.1576 66.5162221886 33.8990495445 15.4921857679 # F
161 1 1 0.3275 65.9708268063 32.2180986585 15.4648710244 # C
162 1 2 -0.1576 65.3480838261 32.1100923108 15.0719092544 # F
163 1 2 -0.1576 66.3101605778 31.4789234377 15.0259611261 # F
164 1 1 0.3275 66.9020660300 32.0585017076 16.4706712791 # C
165 1 2 -0.1576 67.5281484005 32.8196467002 16.3930424298 # F
166 1 2 -0.1576 66.6854320212 31.9965101379 17.1243553021 # F
167 1 1 0.3275 67.8950629523 30.8751484035 16.3222739946 # C
168 1 2 -0.1576 67.6921431916 29.6612623869 16.1034468256 # F
169 1 2 -0.1576 68.9128359932 31.6133155892 16.4398471064 # F
170 1 1 0.3275 68.9414068960 30.4802703992 16.6336250679 # C
171 1 2 -0.1576 69.4133583468 29.9470232697 16.9593895267 # F
172 1 2 -0.1576 69.6085972065 30.4242953026 15.5008434296 # F
173 1 1 0.3275 68.6693169355 30.3932256497 17.5698063829 # C
174 1 2 -0.1576 68.3771633229 31.2539879214 17.2911276923 # F
175 1 2 -0.1576 68.4365899269 29.2504953142 17.3885750843 # F
176 1 1 0.3275 69.2192891553 30.0403401897 18.3233468224 # C
177 1 2 -0.1576 70.3584902035 29.0786345914 18.2110738433 # F
178 1 2 -0.1576 69.6719596615 31.2069692997 18.0446664699 # F
179 1 1 0.2465 68.4750706795 29.6648675172 19.3036763526 # C
180 1 2 -0.1336 69.2657004192 29.1839134912 19.2408555243 # F
181 1 2 -0.1336 68.8102781007 30.1768929927 20.1474787815 # F
182 1 1 0.1317 67.4458391580 30.0354406642 19.0834426244 # C
183 1 2 -0.1193 66.8838016262 28.9278192710 19.2450249588 # F
184 1 3 -0.3109 67.5252781314 30.5420490638 18.0646738419 # GFOc
185 1 1 0.4954 66.9862474949 29.8395748383 17.4518623792 # C
186 1 2 -0.1280 66.5889248527 29.7213762210 18.0983735715 # F
187 1 2 -0.1559 67.6595349785 29.2851279814 16.8249974981 # F
188 1 1 0.0465 66.5969511057 31.0972325966 16.9659076345 # C
189 1 2 -0.1122 66.4488920414 31.2187976373 15.6982692587 # F
190 1 1 0.5842 65.4617838342 31.5190057653 17.5927297604 # C
191 1 2 -0.1563 65.3905866675 30.9128836210 18.4892723151 # F
192 1 2 -0.1736 65.4254041897 30.9396247180 16.4397381399 # F
193 1 2 -0.1844 64.7771352534 32.2440697033 17.8784259735 # F
194 1 3 -0.2516 67.6147568544 31.3219777897 17.6436265540 # GFOc
195 1 1 0.4557 68.4099079593 31.6340260171 18.8186980586 # C
196 1 2 -0.1368 68.1766434765 31.6120616241 20.3786282963 # F
197 1 2 -0.1393 68.8760173701 30.9454106777 19.1564159948 # F
198 1 1 0.1062 69.0302499607 32.7048858391 18.8489158588 # C
199 1 2 -0.1457 68.7319514181 32.7150001457 17.7278143721 # F
200 1 2 -0.1482 68.0515157000 32.5156801101 19.9407356516 # F
201 1 4 1.1345 70.0768447779 33.1307691667 19.3892905436 # GGS
202 1 5 -0.6371 70.4150296744 33.0989643579 18.6349887207 # GOs
203 1 5 -0.6371 70.0666078753 34.1541750627 19.2493532627 # GOs
204 1 5 -0.6371 70.6189862879 32.6993160143 20.1858354497 # GOs
205 1 1 0.3275 67.7334191815 31.3738201617 19.4293186582 # C
206 1 2 -0.1576 69.0160558817 31.3710501394 19.7075015687 # F
207 1 2 -0.1576 67.7793226110 32.1745729936 20.6741010770 # F
208 1 1 0.3275 68.0893406044 32.2572893007 18.3282332164 # C
209 1 2 -0.1576 68.3332003978 32.5924042266 19.1765130541 # F
210 1 2 -0.1576 68.6118854176 32.0451048041 17.7146629240 # F
211 1 1 0.3275 67.1033370353 32.0219941853 17.9210287729 # C
212 1 2 -0.1576 67.2188587604 31.0439293559 18.6899096720 # F
213 1 2 -0.1576 67.7073431193 32.0262807134 17.1520107414 # F
214 1 1 0.3275 66.3315571020 32.5561508922 17.9122443202 # C
215 1 2 -0.1576 65.6255268096 32.6911888801 17.5242257600 # F
216 1 2 -0.1576 66.5950501084 33.1677144483 18.1390400196 # F
217 1 1 0.3275 66.0440557402 31.8953555898 18.4586838547 # C
218 1 2 -0.1576 66.6034511589 32.0809676014 19.3294664263 # F
219 1 2 -0.1576 66.6144188633 31.1372823958 18.1319865864 # F
220 1 1 0.3275 64.6333002586 31.8863177189 18.6964067001 # C
221 1 2 -0.1576 64.6853916304 31.0494812505 18.7313379074 # F
222 1 2 -0.1576 63.8755233074 31.7538352442 19.5186603220 # F
223 1 1 0.3275 63.6320403433 32.5192720375 19.1007215139 # C
224 1 2 -0.1576 63.9619968319 32.4758369846 19.9212519133 # F
225 1 2 -0.1576 63.7902469224 33.3991231286 19.2651732168 # F
226 1 1 0.3275 62.8349597630 32.5640681729 18.3242378626 # C
227 1 2 -0.1576 62.8950328766 31.4500609279 18.0164749989 # F
228 1 2 -0.1576 61.9739163920 32.2463959502 18.8346934226 # F
229 1 1 0.3275 62.9837861349 33.4310861779 17.8102600086 # C
230 1 2 -0.1576 63.2446017005 34.4080934039 17.8629301305 # F
231 1 2 -0.1576 63.4047073509 33.5349446839 16.8808560251 # F
232 1 1 0.3275 61.6542471446 33.6598019165 17.3580854564 # C
233 1 2 -0.1576 61.5876376861 34.4165467700 18.0680202552 # F
234 1 2 -0.1576 60.6787865604 33.6846626002 17.1493934979 # F
235 1 1 0.3275 61.4096697436 32.7435381818 17.4432021592 # C
236 1 2 -0.1576 61.2127410009 32.5951488230 18.1668618526 # F
237 1 2 -0.1576 61.9242227743 32.2016597063 16.7938029533 # F
238 1 1 0.3275 60.3495201971 32.8433704573 17.1102178995 # C
239 1 2 -0.1576 59.7704914639 32.4460108795 17.7052275381 # F
240 1 2 -0.1576 60.2885732166 33.9929033923 16.4286045098 # F
241 1 1 0.3275 61.0763831486 32.6432388315 16.5749094989 # C
242 1 2 -0.1576 60.4376819809 31.7216440106 16.0804993345 # F
243 1 2 -0.1576 61.3257342879 33.4686457935 15.9825809334 # F
244 1 1 0.3275 62.3338209013 32.8371984788 17.0822085840 # C
245 1 2 -0.1576 62.3647849230 33.1483378553 16.1732284234 # F
246 1 2 -0.1576 62.7204677262 32.5233054423 17.5563179765 # F
247 1 1 0.2465 62.2209699590 33.7475843606 17.5320219270 # C
248 1 2 -0.1336 61.6084613033 34.5752736109 16.8992541552 # F
249 1 2 -0.1336 62.5997652570 34.7226974347 17.9152026125 # F
250 1 1 0.1317 62.8970877898 33.7581387557 18.5858859312 # C
251 1 2 -0.1193 63.8946550175 34.3858430204 18.3967006030 # F
252 1 3 -0.3109 62.5780486206 34.7460936262 19.7283625182 # GFOc
253 1 1 0.4954 63.0902406671 35.7629488912 19.8358568145 # C
254 1 2 -0.1280 63.6964499265 35.4532496126 19.5451669046 # F
255 1 2 -0.1559 62.2037494272 35.7515949488 19.1397145252 # F
256 1 1 0.0465 63.3024539590 37.0942829425 20.0015853687 # C
257 1 2 -0.1122 62.4746922415 37.3987552131 19.2694576500 # F
258 1 1 0.5842 63.3843696060 37.4556695552 20.8845862499 # C
259 1 2 -0.1563 63.8770646544 36.7462100156 22.0314012721 # F
260 1 2 -0.1736 63.6526247694 38.3252358562 20.4129365763 # F
261 1 2 -0.1844 62.2667521435 37.7862645104 21.1860572175 # F
262 1 3 -0.2516 63.0080463729 37.9802869387 20.2360341831 # GFOc
263 1 1 0.4557 61.7978229988 38.9885195934 20.5168229931 # C
264 1 2 -0.1368 62.0788051643 40.1320767764 20.7461891798 # F
265 1 2 -0.1393 61.5645830708 38.0798713652 20.4265861720 # F
266 1 1 0.1062 61.1700288044 39.3647727232 19.8831488677 # C
267 1 2 -0.1457 59.6738370853 38.9313171645 19.9567606262 # F
268 1 2 -0.1482 60.6311084300 39.9225067090 20.2882390180 # F
269 1 4 1.1345 61.6559372552 39.8367006378 18.5645738020 # GGS
270 1 5 -0.6371 61.8408150202 39.1402965945 17.5635621902 # GOs
271 1 5 -0.6371 62.0411056093 40.5556928923 18.5042939117 # GOs
272 1 5 -0.6371 60.5363651103 40.2619502941 18.1161809610 # GOs
273 1 1 0.3275 62.4094063482 33.4053058672 19.8659309463 # C
274 1 2 -0.1576 61.3997003205 34.1961905768 20.0704204121 # F
275 1 2 -0.1576 61.7997284622 32.2999550666 20.0639877861 # F
276 1 1 0.3275 63.0849476202 33.4152293251 20.4242916934 # C
277 1 2 -0.1576 62.7100424601 32.9482268424 21.1642081739 # F
278 1 2 -0.1576 63.8148815934 34.3413622662 21.1389563079 # F
279 1 1 0.3275 64.0976619468 33.9235068548 19.9660274166 # C
280 1 2 -0.1576 64.6793782040 33.5925777385 19.4949763011 # F
281 1 2 -0.1576 63.2225881376 34.3459490588 20.2647978493 # F
282 1 1 0.3275 64.5458492817 35.3374310816 20.0889039046 # C
283 1 2 -0.1576 65.4247196329 35.6583183707 19.7795112761 # F
284 1 2 -0.1576 64.1795673102 35.7828872468 21.0868840677 # F
285 1 1 0.3275 63.7007971683 36.3278562783 19.5556491275 # C
286 1 2 -0.1576 62.7921131230 36.5002050870 20.4926393930 # F
287 1 2 -0.1576 63.0260880876 36.8286220165 18.8286342811 # F
288 1 1 0.3275 64.6391055392 35.8675269582 19.0492731672 # C
289 1 2 -0.1576 64.4273427691 36.0569426368 17.9275955925 # F
290 1 2 -0.1576 64.6409739975 35.1026823614 19.3104488421 # F
291 1 1 0.3275 65.6572934878 36.7638510531 18.4822140461 # C
292 1 2 -0.1576 66.5805615942 35.9907232218 18.6703683973 # F
293 1 2 -0.1576 65.7156830415 37.5103061896 19.5328262668 # F
294 1 1 0.3275 66.7183257080 37.3537551814 18.0104991364 # C
295 1 2 -0.1576 67.4300040229 36.6458474501 18.7913671538 # F
296 1 2 -0.1576 67.0421140151 38.3602448014 17.9402829661 # F
297 1 1 0.3275 66.0642899460 37.1658191253 17.1066163423 # C
298 1 2 -0.1576 66.5049341307 36.2616549197 16.7500913953 # F
299 1 2 -0.1576 66.7850702502 37.6972085673 16.3375180591 # F
300 1 1 0.3275 65.2376274404 37.0260515949 17.0214109545 # C
301 1 2 -0.1576 63.7304848185 37.1140875528 16.8675561491 # F
302 1 2 -0.1576 64.7379131717 37.4003146523 17.8792931981 # F
303 1 1 0.3275 65.4675887744 36.7597815165 15.9349847860 # C
304 1 2 -0.1576 65.7725515268 37.9436781163 15.6968362581 # F
305 1 2 -0.1576 66.3587976102 36.5817996018 16.1938416458 # F
306 1 1 0.3275 65.2685483331 35.9862976156 14.9535478209 # C
307 1 2 -0.1576 64.3641695775 35.3333250676 14.8957945110 # F
308 1 2 -0.1576 65.1489073156 36.5174690809 14.0389550016 # F
309 1 1 0.3275 66.4379916781 35.7279097533 15.1527869506 # C
310 1 2 -0.1576 66.9929811834 35.2453797196 14.4813078163 # F
311 1 2 -0.1576 67.0354990398 36.3059128665 15.5052147500 # F
312 1 1 0.3275 66.1460460790 35.0775746311 15.6469876730 # C
313 1 2 -0.1576 66.0236895035 34.4723730713 15.0416412963 # F
314 1 2 -0.1576 66.7728848565 34.4132136568 16.4557722497 # F
315 1 1 0.2465 65.6026289337 35.6765869644 16.6935042419 # C
316 1 2 -0.1336 66.5067523473 35.5015645612 17.3059176257 # F
317 1 2 -0.1336 65.7106640610 36.2554781443 17.3854525933 # F
318 1 1 0.1317 64.6956824371 35.2270897986 16.7396089133 # C
319 1 2 -0.1193 63.8937147545 35.9090104397 17.1338997611 # F
320 1 3 -0.3109 64.3925559071 34.8447356869 16.3501737143 # GFOc
321 1 1 0.4954 63.7953044375 35.1904431742 15.6494074810 # C
322 1 2 -0.1280 62.5417215989 35.0657376430 16.0609873012 # F
323 1 2 -0.1559 63.9783419234 34.2436976703 15.0932786619 # F
324 1 1 0.0465 63.9830970591 36.0978137333 15.4435283173 # C
325 1 2 -0.1122 64.2288053856 36.7112448403 16.2370641898 # F
326 1 1 0.5842 64.6815360080 37.0299487580 15.3365264327 # C
327 1 2 -0.1563 64.4130672100 37.6827101613 16.1840780635 # F
328 1 2 -0.1736 64.6547055773 37.3029533897 14.5178085889 # F
329 1 2 -0.1844 65.6469179974 36.9234475802 14.7912400634 # F
330 1 3 -0.2516 63.3712826824 36.7568902536 14.4682260575 # GFOc
331 1 1 0.4557 63.2522263704 38.1009782972 14.4552425601 # C
332 1 2 -0.1368 63.5896082854 38.9060685386 15.2773698541 # F
333 1 2 -0.1393 63.6045537385 38.7389727019 13.7783264566 # F
334 1 1 0.1062 62.0854499395 38.4556508262 14.6849144645 # C
335 1 2 -0.1457 61.0883809636 37.8021111942 14.2488775158 # F
336 1 2 -0.1482 62.4656003373 37.8749293053 15.2555696242 # F
337 1 4 1.1345 61.4953090698 39.3524971598 15.5422352792 # GGS
338 1 5 -0.6371 60.4760588190 39.2622900311 14.7721175313 # GOs
339 1 5 -0.6371 62.2021856142 40.1197586838 15.8705876920 # GOs
340 1 5 -0.6371 60.6683660308 40.0005473429 16.8924152331 # GOs
341 1 1 0.3275 65.3484655028 34.6828901027 17.0800656000 # C
342 1 2 -0.1576 66.0835744775 34.7092863537 16.8675905929 # F
343 1 2 -0.1576 65.1906672896 34.8881040692 18.1708356487 # F
344 1 1 0.3275 65.0321474871 33.5788695845 17.0656171431 # C
345 1 2 -0.1576 65.8188965720 33.0790134798 17.5659715587 # F
346 1 2 -0.1576 64.1821124376 33.0876962780 17.0331236709 # F
347 1 1 0.3275 65.3538800969 33.4055176952 16.3844071531 # C
348 1 2 -0.1576 65.9472011308 32.4553766008 16.3382331361 # F
349 1 2 -0.1576 64.9890497711 33.3975838034 15.8881270403 # F
350 1 1 0.3275 65.5447585869 34.6686094641 16.0646508082 # C
351 1 2 -0.1576 64.5442750521 34.6321815220 16.3418875726 # F
352 1 2 -0.1576 65.7469446392 35.6750297223 15.8245785228 # F
353 1 1 0.3275 66.9171688880 34.9726821661 16.1418436367 # C
354 1 2 -0.1576 66.8165134533 34.8703068891 17.5045233798 # F
355 1 2 -0.1576 67.3228128641 34.7334037868 15.1176165650 # F
356 1 1 0.3275 67.9313592086 35.7021090442 15.6216615181 # C
357 1 2 -0.1576 67.9120081394 35.7656284507 14.6993349541 # F
358 1 2 -0.1576 67.5058954730 36.5736825354 14.7631663145 # F
359 1 1 0.3275 68.7549595115 36.4293643514 16.1617674140 # C
360 1 2 -0.1576 69.1296830235 36.5814250705 15.1784165399 # F
361 1 2 -0.1576 68.1825480321 36.3389099595 17.1548741895 # F
362 1 1 0.3275 69.8635054955 36.6540736183 16.5417908898 # C
363 1 2 -0.1576 70.7179644590 37.1479890561 16.5136531215 # F
364 1 2 -0.1576 69.7392014930 37.2989891069 17.5246920040 # F
365 1 1 0.3275 70.3235291341 35.7111377010 16.0445059112 # C
366 1 2 -0.1576 71.4679423541 35.6312512530 15.8887886515 # F
367 1 2 -0.1576 70.0268476053 35.5823970100 15.3286231472 # F
368 1 1 0.3275 70.4020634428 34.9095016563 16.8682694464 # C
369 1 2 -0.1576 71.0591825022 33.8380836110 16.4624340639 # F
370 1 2 -0.1576 71.1118394431 35.3022354499 17.2571540933 # F
371 1 1 0.3275 69.2256123226 34.5935562393 17.9136297275 # C
372 1 2 -0.1576 69.4742677411 34.8141810756 18.8569157243 # F
373 1 2 -0.1576 69.3138373089 33.5869260575 17.9227147303 # F
374 1 1 0.3275 68.1743327840 35.2079987239 18.0506951423 # C
375 1 2 -0.1576 68.6556096029 35.9668733385 17.8289574576 # F
376 1 2 -0.1576 68.1324699031 35.1180034036 18.8869632519 # F
377 1 1 0.3275 67.5088052544 35.0919111201 16.9680956681 # C
378 1 2 -0.1576 66.8029779951 35.5547859696 16.4538535965 # F
379 1 2 -0.1576 68.2054971758 34.8392246963 15.9361516145 # F
380 1 1 0.3275 66.6717290394 34.1241907013 17.2253007786 # C
381 1 2 -0.1576 67.5255854274 33.4990900594 17.2185844605 # F
382 1 2 -0.1576 66.3638033594 33.3340518847 16.5636242843 # F
383 1 1 0.2465 66.1145849991 34.3554055716 17.8928725296 # C
384 1 2 -0.1336 65.7399500599 35.5477249931 18.0321890872 # F
385 1 2 -0.1336 66.2180128191 34.9398150808 19.0256318674 # F
386 1 1 0.1317 65.3756213227 33.8504090011 17.9471449702 # C
387 1 2 -0.1193 64.4380432445 34.1985428940 17.4481900550 # F
388 1 3 -0.3109 66.1170879493 33.3682020281 17.2922152510 # GFOc
389 1 1 0.4954 66.9248020464 33.3781469583 16.4923021740 # C
390 1 2 -0.1280 66.9524519600 32.6533025242 16.9626563307 # F
391 1 2 -0.1559 66.9017824165 33.0480459419 15.5082207945 # F
392 1 1 0.0465 68.1382221540 33.6611660217 16.0360988014 # C
393 1 2 -0.1122 68.9814991698 33.1268323153 16.7418122092 # F
394 1 1 0.5842 69.2986797105 33.8380498214 15.7410516777 # C
395 1 2 -0.1563 68.9604331701 34.7067403695 15.4132857066 # F
396 1 2 -0.1736 70.0466205770 33.9573636417 16.2408973081 # F
397 1 2 -0.1844 69.9058802318 32.6661027446 15.2580362881 # F
398 1 3 -0.2516 67.6543233748 33.9844560074 15.0777694014 # GFOc
399 1 1 0.4557 66.8611053867 33.9955897270 14.3782496258 # C
400 1 2 -0.1368 65.7736709740 34.5752014142 14.2394805456 # F
401 1 2 -0.1393 66.2747098482 33.1891017180 14.7413406590 # F
402 1 1 0.1062 67.8236874201 34.1953335935 13.5403737279 # C
403 1 2 -0.1457 68.9821359751 33.4197780849 13.5094492555 # F
404 1 2 -0.1482 67.8211901586 35.3836556459 13.5530210615 # F
405 1 4 1.1345 67.7725970164 33.6047291763 12.7479427715 # GGS
406 1 5 -0.6371 67.7641651128 34.6591010401 11.8706981677 # GOs
407 1 5 -0.6371 67.1688154526 32.6929946190 13.4070858017 # GOs
408 1 5 -0.6371 68.1526402432 33.1551193903 11.6996447624 # GOs
409 1 1 0.3275 65.9801225801 33.3290439404 18.8827374060 # C
410 1 2 -0.1576 65.5472531945 33.0117641464 20.0327351980 # F
411 1 2 -0.1576 65.3301202119 32.5079954147 18.4070590016 # F
412 1 1 0.3275 66.5494819503 33.8140483282 19.0954579079 # C
413 1 2 -0.1576 67.1120838061 33.9305255382 20.1089381269 # F
414 1 2 -0.1576 66.9817888040 34.9714223566 18.7359527776 # F
415 1 1 0.3275 67.1660711462 33.6860978617 18.5409875450 # C
416 1 2 -0.1576 67.5303296678 32.6096247468 17.8180028277 # F
417 1 2 -0.1576 67.6018655928 34.5379211914 17.7624220750 # F
418 1 1 0.3275 67.7746800494 34.3885558986 18.7856978003 # C
419 1 2 -0.1576 67.4285211179 35.5051853102 19.0348985162 # F
420 1 2 -0.1576 68.1092450283 33.9595562910 18.0145707826 # F
421 1 1 0.3275 68.0780820762 33.7462318157 19.5975735411 # C
422 1 2 -0.1576 68.8181122040 33.8575423496 19.0342262596 # F
423 1 2 -0.1576 68.9110922511 33.1001596675 19.9176470815 # F
424 1 1 0.3275 67.6573941860 34.3384253536 20.6015684083 # C
425 1 2 -0.1576 67.4944997457 35.2327320445 19.7637738585 # F
426 1 2 -0.1576 67.2094652825 33.5717884012 20.6579172882 # F
427 1 1 0.3275 67.9295677573 34.3105364959 21.7531432627 # C
428 1 2 -0.1576 66.9006440078 33.9814200881 22.3261741587 # F
429 1 2 -0.1576 68.8443065354 33.4557215305 21.8191179621 # F
430 1 1 0.3275 68.7586388507 34.7384710472 22.4843862607 # C
431 1 2 -0.1576 68.6930773912 34.2769457343 23.2356490697 # F
432 1 2 -0.1576 68.1809382599 35.1441384517 23.3407945417 # F
433 1 1 0.3275 69.3728521852 35.0032962196 21.7728463841 # C
434 1 2 -0.1576 70.5083553149 34.5629351525 21.1651306583 # F
435 1 2 -0.1576 69.0283839405 35.3348518713 20.7582831405 # F
436 1 1 0.3275 70.0854604509 35.2927052435 22.8826320441 # C
437 1 2 -0.1576 70.5786237958 36.2369340507 22.7053372350 # F
438 1 2 -0.1576 69.5012480260 35.3130613119 23.6757929068 # F
439 1 1 0.3275 70.7463211628 34.5354292036 23.2023149366 # C
440 1 2 -0.1576 70.4679212843 33.5410951052 23.7304842521 # F
441 1 2 -0.1576 71.1515987248 33.6095099876 22.7669717767 # F
442 1 1 0.3275 71.8745974054 35.1625172772 22.9250523017 # C
443 1 2 -0.1576 72.0085410803 34.4470829448 21.7403478656 # F
444 1 2 -0.1576 72.7620848821 35.2705028006 23.2697633315 # F
445 1 1 0.3275 71.9844867749 35.9937646212 23.1875599702 # C
446 1 2 -0.1576 71.9775090877 36.1162845213 24.1014493854 # F
447 1 2 -0.1576 71.9825692823 36.2256776607 22.2533800626 # F
448 1 1 0.3275 72.9106359921 36.8696367403 23.1574459190 # C
449 1 2 -0.1576 72.0655474212 37.3840653131 23.8108530172 # F
450 1 2 -0.1576 73.6313581609 36.2467573384 24.0260859097 # F
451 1 1 0.2465 73.7333271629 37.2445768012 22.9962017069 # C
452 1 2 -0.1336 73.1170986364 37.7575883361 22.3903728740 # F
453 1 2 -0.1336 73.6817740564 37.8637316153 23.7730141742 # F
454 1 1 0.1317 74.4992103622 36.7551393961 22.6424927779 # C
455 1 2 -0.1193 74.1245362714 35.9976573595 23.5269656980 # F
456 1 3 -0.3109 75.0264206248 36.1908870570 21.6914761329 # GFOc
457 1 1 0.4954 74.9704539892 35.4085468624 21.2440199940 # C
458 1 2 -0.1280 74.2493131495 35.1588417583 20.6231756603 # F
459 1 2 -0.1559 74.6890201231 34.6635993402 21.6704500526 # F
460 1 1 0.0465 76.1355539392 35.4379092947 20.9530426141 # C
461 1 2 -0.1122 76.2066490027 36.4931591877 20.5225639589 # F
462 1 1 0.5842 76.3634382876 34.7293168772 20.2421020435 # C
463 1 2 -0.1563 76.8305868880 33.5859807796 20.3849642354 # F
464 1 2 -0.1736 76.0376809673 34.6961884921 19.4008203437 # F
465 1 2 -0.1844 76.8781305904 35.6299467577 19.5337252884 # F
466 1 3 -0.2516 76.7674252089 35.3809804394 21.4243939816 # GFOc
467 1 1 0.4557 77.0285566143 34.7733481490 22.1130670912 # C
468 1 2 -0.1368 76.8181358021 34.1846099247 21.1014026969 # F
469 1 2 -0.1393 77.8250629338 35.3379109948 22.7804190298 # F
470 1 1 0.1062 77.3438674951 34.0684431822 22.8360406315 # C
471 1 2 -0.1457 77.7531365169 32.8668782701 22.6739303066 # F
472 1 2 -0.1482 76.3878996811 33.1022708666 22.8298387801 # F
473 1 4 1.1345 78.0484925055 34.6711717112 23.5510419102 # GGS
474 1 5 -0.6371 78.6823890456 33.8377624912 24.4313128977 # GOs
475 1 5 -0.6371 78.3025041888 35.6525034829 23.0325920459 # GOs
476 1 5 -0.6371 77.3762002850 35.2126667067 23.7689152641 # GOs