LAMMPS output created by EMC v9.4.4, build Aug 20 2021 07:52:44

       18145  atoms
        6447  bonds
       10220  angles
       13377  dihedrals

           9  atom types
           6  bond types
          11  angle types
          12  dihedral types

             0     135.334532  xlo xhi
             0    36.61627605  ylo yhi
             0    36.61627605  zlo zhi

Masses

       1   20.00000  # C
       2   20.00000  # F
       3   20.00000  # GFOc
       4   20.00000  # GGS
       5   20.00000  # GOs
       6   20.00000  # Na
       7   20.00000  # P
       8   20.00000  # WH
       9   20.00000  # WO

Atoms

       1   1  98.9441168774  35.7337625109  31.0449854634       1  0.3275  # C
       2   2  97.9148053835  36.6762593450  31.1481214642       1 -0.1576  # F
       3   2  99.3112391445  36.0731928088  30.0711922540       1 -0.1576  # F
       4   1  99.8592046057  36.0188345926  31.3498003764       1  0.3275  # C
       5   2  99.6907599221  35.2773411802  31.6948576625       1 -0.1576  # F
       6   2 100.4694184912  36.0115227841  32.0191292810       1 -0.1576  # F
       7   1 100.4454739183  36.4903825539  30.1985130771       1  0.3275  # C
       8   2 100.2992040258  35.5359493439  29.9245241694       1 -0.1576  # F
       9   2 101.2305826165  36.7951773528  30.4479831171       1 -0.1576  # F
      10   1 100.8780079967  36.9997976003  29.2613033211       1  0.3275  # C
      11   2 101.2533248673  37.8663089766  29.5084304021       1 -0.1576  # F
      12   2 100.1894988042  37.2969349331  28.9133194257       1 -0.1576  # F
      13   1 101.7070216559  36.4485659356  28.6471280816       1  0.3275  # C
      14   2 102.0605493678  37.0244512168  28.0872438631       1 -0.1576  # F
      15   2 102.1667495576  36.3144259871  29.7997269404       1 -0.1576  # F
      16   1 101.8919344533  35.8138978564  27.9535849160       1  0.3275  # C
      17   2 102.0169089308  35.8568409290  26.8623462676       1 -0.1576  # F
      18   2 102.6354950158  35.4526584271  28.0440888988       1 -0.1576  # F
      19   1 101.4913454683  34.7651726442  28.6113945557       1  0.3275  # C
      20   2 100.1072540472  34.3333024546  28.4006573557       1 -0.1576  # F
      21   2 101.5564932590  34.0360706400  27.8234429970       1 -0.1576  # F
      22   1 101.7872526449  34.5799553563  29.8714063720       1  0.3275  # C
      23   2 102.3698670952  34.0398341115  30.4229396897       1 -0.1576  # F
      24   2 101.6802861012  35.4082701443  30.0227527788       1 -0.1576  # F
      25   1 100.9349343363  33.5769914013  30.0804408752       1  0.3275  # C
      26   2 100.8095258275  34.0013077616  31.1797728095       1 -0.1576  # F
      27   2 101.2302017968  32.5345697722  30.6153215644       1 -0.1576  # F
      28   1  99.7930313137  33.1682457541  30.3507058336       1  0.3275  # C
      29   2  99.6777856928  33.0711117631  31.1344404060       1 -0.1576  # F
      30   2  99.8408243290  31.9963593192  30.3166145098       1 -0.1576  # F
      31   1  98.9937616206  32.8545350036  29.7412127217       1  0.3275  # C
      32   2  98.5676606855  31.9837638132  30.3282002288       1 -0.1576  # F
      33   2  98.1227760477  33.8783093443  30.2956344579       1 -0.1576  # F
      34   1  98.7677655080  32.8184576261  28.8966295852       1  0.3275  # C
      35   2  99.0514730057  33.5841442315  28.2444906278       1 -0.1576  # F
      36   2  99.2024830547  32.6135278968  28.2605551340       1 -0.1576  # F
      37   1  97.8840725530  32.0769911069  28.7078235946       1  0.3275  # C
      38   2  97.4618859045  32.9435048983  28.5482571595       1 -0.1576  # F
      39   2  98.2022064857  31.4464941145  29.6268588428       1 -0.1576  # F
      40   1  97.7325181807  30.8003178205  28.2202831866       1  0.3275  # C
      41   2  97.9152085049  29.8881325575  28.1335630450       1 -0.1576  # F
      42   2  97.1816955638  31.0462039076  28.9872596680       1 -0.1576  # F
      43   1  97.1994359532  30.8848124830  27.5012070439       1  0.2465  # C
      44   2  96.2477100989  30.0897845277  27.7120357951       1 -0.1336  # F
      45   2  97.5133100376  31.6140599987  27.8089066804       1 -0.1336  # F
      46   1  97.5381845714  29.9187270998  26.5774718909       1  0.1317  # C
      47   2  96.2885870868  29.4657702840  26.6968253618       1 -0.1193  # F
      48   3  97.8677644337  29.1195153154  26.3854198223       1 -0.3109  # GFOc
      49   1  97.2105719675  28.5968199752  27.1247643723       1  0.4954  # C
      50   2  97.3370340768  29.4580148482  27.2428918750       1 -0.1280  # F
      51   2  97.3337764207  27.7542947042  27.9183831779       1 -0.1559  # F
      52   1  95.9148613205  28.2901266006  27.5475759045       1  0.0465  # C
      53   2  95.3752617320  28.1319736653  28.1703371676       1 -0.1122  # F
      54   1  97.0057085614  28.6610541577  28.0717482480       1  0.5842  # C
      55   2  96.4193191643  29.5111299443  28.0570963042       1 -0.1563  # F
      56   2  96.5058094737  27.8177888242  27.9779073206       1 -0.1736  # F
      57   2  98.0704190510  28.3971836930  27.9127346655       1 -0.1844  # F
      58   3  95.2680453508  28.6653517221  26.7628157060       1 -0.2516  # GFOc
      59   1  95.0480941502  29.5769763700  27.2382790128       1  0.4557  # C
      60   2  94.1275942037  29.7533714049  27.4075453437       1 -0.1368  # F
      61   2  95.1930724866  30.2478366775  26.9701383600       1 -0.1393  # F
      62   1  95.0267415631  29.5832808229  28.2244893191       1  0.1062  # C
      63   2  96.0716431513  30.0899218368  28.2659166817       1 -0.1457  # F
      64   2  94.0578489294  29.1993030288  28.2345574759       1 -0.1482  # F
      65   4  95.1802823341  29.0595227796  28.7799578723       1  1.1345  # GGS
      66   5  96.3461723124  29.0697807417  28.8253918859       1 -0.6371  # GOs
      67   5  94.6500722131  27.8918598111  28.7959828997       1 -0.6371  # GOs
      68   5  94.6468213269  28.6887631321  29.5797022903       1 -0.6371  # GOs
      69   1  97.3513910276  30.7333683143  25.7066521432       1  0.3275  # C
      70   2  97.9098394834  31.5981136960  25.4846677239       1 -0.1576  # F
      71   2  97.4990592997  30.4009948428  24.5450528528       1 -0.1576  # F
      72   1  96.2725403454  31.0303613188  25.9797344890       1  0.3275  # C
      73   2  96.4222732341  32.2418551087  25.9516578549       1 -0.1576  # F
      74   2  95.8247558045  30.8327370838  26.8670391625       1 -0.1576  # F
      75   1  95.6246204298  31.2645191846  25.4189426055       1  0.3275  # C
      76   2  94.7051715144  31.8506649920  25.3275637560       1 -0.1576  # F
      77   2  95.6768469015  31.7658377594  26.5886806813       1 -0.1576  # F
      78   1  95.4470423970  30.8112087939  24.5327347641       1  0.3275  # C
      79   2  96.3447350540  31.6424363077  24.8198057568       1 -0.1576  # F
      80   2  94.8732200199  29.6762510141  25.0246688540       1 -0.1576  # F
      81   1  94.9263118711  31.2386984233  23.5387752716       1  0.3275  # C
      82   2  95.0215927594  32.4613473848  23.6963776323       1 -0.1576  # F
      83   2  95.4131986303  30.7363747354  22.7546870677       1 -0.1576  # F
      84   1  94.5891254679  32.1698006365  23.9196741291       1  0.3275  # C
      85   2  94.3656295529  32.1044352491  22.7458203311       1 -0.1576  # F
      86   2  93.9269949783  32.1627954468  24.6056227750       1 -0.1576  # F
      87   1  94.1187680569  32.9656081171  24.1296236702       1  0.3275  # C
      88   2  93.4191708224  33.4158169073  25.1564378497       1 -0.1576  # F
      89   2  94.3710168501  33.2853765103  23.6005218804       1 -0.1576  # F
      90   1  93.2851829770  32.4883434925  23.1218223535       1  0.3275  # C
      91   2  92.0153194721  32.7655055689  22.1351738297       1 -0.1576  # F
      92   2  92.4459685595  32.8749966277  23.7395020715       1 -0.1576  # F
      93   1  93.4217905042  31.4045792823  22.1173870396       1  0.3275  # C
      94   2  93.3381330412  31.5598063949  21.1667854306       1 -0.1576  # F
      95   2  94.4454568603  31.0376362995  21.4305504676       1 -0.1576  # F
      96   1  92.4652591496  30.6088085159  21.7087773338       1  0.3275  # C
      97   2  91.9330602236  30.6347549247  20.7322580845       1 -0.1576  # F
      98   2  92.8491092996  29.4423655879  21.5483102392       1 -0.1576  # F
      99   1  91.6987714243  31.0464200834  21.8754295562       1  0.3275  # C
     100   2  91.9321437364  31.3644809834  22.6169564163       1 -0.1576  # F
     101   2  91.1395177327  30.5208299709  21.4583372570       1 -0.1576  # F
     102   1  91.2566652970  32.0553027019  22.0241293715       1  0.3275  # C
     103   2  90.9229580118  31.8009955405  21.2777202135       1 -0.1576  # F
     104   2  91.7002059227  32.8406360832  21.5513247300       1 -0.1576  # F
     105   1  90.5201107716  31.4811303188  22.6544639292       1  0.3275  # C
     106   2  89.5169765586  32.1288858741  22.3498918446       1 -0.1576  # F
     107   2  89.7550410055  30.6958822458  22.8395500943       1 -0.1576  # F
     108   1  90.5978577982  31.2395171694  23.7578882773       1  0.3275  # C
     109   2  89.6586411905  30.3923622671  23.4198577290       1 -0.1576  # F
     110   2  91.3702016940  30.6859313070  24.3833115566       1 -0.1576  # F
     111   1  90.9709890672  32.5746086509  24.1095130725       1  0.2465  # C
     112   2  90.8227738351  33.2096924297  24.6437544974       1 -0.1336  # F
     113   2  90.2580203966  32.5914683466  23.8610039902       1 -0.1336  # F
     114   1  91.9451346335  32.1557271062  24.4203418694       1  0.1317  # C
     115   2  91.9148296944  31.5980646476  25.2451079247       1 -0.1193  # F
     116   3  92.2298438686  31.9278306417  23.4172023395       1 -0.3109  # GFOc
     117   1  93.2854995421  32.0640510971  22.8591681092       1  0.4954  # C
     118   2  92.9613885973  32.6481496684  22.3253592914       1 -0.1280  # F
     119   2  93.9407760388  32.3733132701  23.6571766258       1 -0.1559  # F
     120   1  93.8123726638  31.1708417632  23.0587518680       1  0.0465  # C
     121   2  94.6738501263  31.1269049749  22.6183039049       1 -0.1122  # F
     122   1  93.8597872099  30.8468236925  24.2572332538       1  0.5842  # C
     123   2  93.3182987373  30.7024982282  25.6995082155       1 -0.1563  # F
     124   2  94.9830390347  30.2917990611  23.9874111748       1 -0.1736  # F
     125   2  93.0841116221  30.0488313320  23.9373816118       1 -0.1844  # F
     126   3  93.4149623946  30.3059382907  22.7646472462       1 -0.2516  # GFOc
     127   1  92.7395559636  29.4302334013  23.0442789997       1  0.4557  # C
     128   2  92.8264338315  28.3602946902  22.7639543670       1 -0.1368  # F
     129   2  93.6811714007  29.7711109535  23.4043001517       1 -0.1393  # F
     130   1  92.1433887656  29.6176075230  23.6604046627       1  0.1062  # C
     131   2  91.3835731730  29.5362366942  23.2786931573       1 -0.1457  # F
     132   2  92.6695403369  28.9117005558  23.8043286733       1 -0.1482  # F
     133   4  91.8450593605  30.3714710347  24.2869964663       1  1.1345  # GGS
     134   5  92.4793889042  30.4641835760  25.2070212309       1 -0.6371  # GOs
     135   5  91.2030640989  29.5040527123  25.1221212200       1 -0.6371  # GOs
     136   5  91.3545468140  31.3580025107  23.3482744460       1 -0.6371  # GOs
     137   1  92.3847706656  33.1403727072  25.1531812580       1  0.3275  # C
     138   2  92.2651984820  34.2218195326  25.1825753637       1 -0.1576  # F
     139   2  92.3211149225  32.7458487562  26.2795285718       1 -0.1576  # F
     140   1  93.0682844517  32.9972526016  24.7624657886       1  0.3275  # C
     141   2  92.9143265793  33.6703491736  24.0033588118       1 -0.1576  # F
     142   2  94.2638812636  33.6537704906  25.6382924710       1 -0.1576  # F
     143   1  93.0007562459  31.8222272253  24.1216021913       1  0.3275  # C
     144   2  93.0594452518  31.1629142234  24.8704142651       1 -0.1576  # F
     145   2  92.8034188603  31.3795122310  23.4119730060       1 -0.1576  # F
     146   1  92.4612780103  32.7464236191  23.1036339727       1  0.3275  # C
     147   2  92.1815427608  32.0584421961  22.4204313795       1 -0.1576  # F
     148   2  91.2813110159  33.3418685825  23.7649514114       1 -0.1576  # F
     149   1  93.0175266470  33.9458137311  23.2321934266       1  0.3275  # C
     150   2  94.1199145875  34.4692148603  23.8562185713       1 -0.1576  # F
     151   2  93.3441085311  33.2744304954  23.9027893529       1 -0.1576  # F
     152   1  92.5161571833  34.4605672248  22.4452954730       1  0.3275  # C
     153   2  91.7373122611  34.7043832020  23.1044072071       1 -0.1576  # F
     154   2  93.1571457625  34.5593953638  21.5117731046       1 -0.1576  # F
     155   1  91.5444185655  34.2378851258  21.9519667271       1  0.3275  # C
     156   2  91.8512241071  33.7247707795  21.1392395047       1 -0.1576  # F
     157   2  91.0944141156  33.6000495039  22.8201911501       1 -0.1576  # F
     158   1  90.3310605607  34.3389058974  21.7076434124       1  0.3275  # C
     159   2  89.4949125717  34.0447816031  22.8203306907       1 -0.1576  # F
     160   2  89.5549815637  34.2772860299  20.8152063183       1 -0.1576  # F
     161   1  90.8596077231  35.1510293715  21.8587601215       1  0.3275  # C
     162   2  91.3765457232  35.3570781812  21.1222800797       1 -0.1576  # F
     163   2  91.8735455257  35.4025378595  22.3311563429       1 -0.1576  # F
     164   1  90.5769477893  36.1301061892  22.5176142524       1  0.3275  # C
     165   2  91.0444254292  36.4885086692  23.3013844548       1 -0.1576  # F
     166   2  89.8991290567  35.0552449431  23.0339679306       1 -0.1576  # F
     167   1  91.0118379963  37.2463221179  21.6649095047       1  0.3275  # C
     168   2  91.6423584346  38.1489587290  22.4596830800       1 -0.1576  # F
     169   2  92.0548393427  36.6845605991  21.4177984659       1 -0.1576  # F
     170   1  89.7671430626  37.6741096458  20.8806524058       1  0.3275  # C
     171   2  89.9773586632  38.0942297202  20.3417004768       1 -0.1576  # F
     172   2  90.2065590942  36.7744601287  20.0796839272       1 -0.1576  # F
     173   1  88.6999438696  38.5291168477  21.2111095501       1  0.3275  # C
     174   2  89.3246334838  38.2396484656  20.1407355939       1 -0.1576  # F
     175   2  88.3180362570  39.8630287449  21.7942985728       1 -0.1576  # F
     176   1  87.6290020604  37.4958707922  20.9958862684       1  0.3275  # C
     177   2  87.6186311369  36.7948420970  21.8726995075       1 -0.1576  # F
     178   2  87.1234109830  37.3208307103  20.3068227983       1 -0.1576  # F
     179   1  86.7703407794  37.8118370366  21.4407300204       1  0.2465  # C
     180   2  86.5595324235  36.7094345409  21.5425159709       1 -0.1336  # F
     181   2  85.8137901404  38.2117472716  21.3869002184       1 -0.1336  # F
     182   1  87.1792766132  38.5468721544  22.4087254486       1  0.1317  # C
     183   2  87.1344336742  38.6903273349  23.5307665256       1 -0.1193  # F
     184   3  88.0495864229  37.9086961763  22.5290274289       1 -0.3109  # GFOc
     185   1  88.8244047013  37.1777972432  22.8165815444       1  0.4954  # C
     186   2  89.4717922991  37.9780752685  23.2726954860       1 -0.1280  # F
     187   2  88.5582105978  37.0821958483  24.0205053684       1 -0.1559  # F
     188   1  89.5519643074  35.9295191550  22.4845684812       1  0.0465  # C
     189   2  89.0844830900  35.5268875308  21.5549548669       1 -0.1122  # F
     190   1  90.3314060766  36.3096320273  21.6090463403       1  0.5842  # C
     191   2  91.1900842180  36.6577923058  22.2380455012       1 -0.1563  # F
     192   2  90.5141235512  35.7142293080  20.8290109216       1 -0.1736  # F
     193   2  90.2326936211  36.9504458706  20.9671748026       1 -0.1844  # F
     194   3  90.1816578963  35.3061115518  23.4347006458       1 -0.2516  # GFOc
     195   1  90.4093857779  35.9995889828  24.2245759320       1  0.4557  # C
     196   2  89.7812703214  37.1395309198  24.5882523085       1 -0.1368  # F
     197   2  91.1267300371  35.3754535727  24.5065101500       1 -0.1393  # F
     198   1  91.5157136280  36.7513868539  23.7136777429       1  0.1062  # C
     199   2  91.1951984758  37.6344995420  23.5677453443       1 -0.1457  # F
     200   2  92.8906321860  36.8237517888  23.6067406382       1 -0.1482  # F
     201   4  91.5357150100  36.7115316602  24.8444479773       1  1.1345  # GGS
     202   5  92.0876658764  35.6479837840  25.1944416747       1 -0.6371  # GOs
     203   5  90.8931954809  37.4054072483  24.6076948121       1 -0.6371  # GOs
     204   5  91.0501889480  37.1428507883  25.4756359413       1 -0.6371  # GOs
     205   1  86.6995765759  39.7573542490  22.0688386234       1  0.3275  # C
     206   2  87.2191321934  40.4299317515  22.7991740523       1 -0.1576  # F
     207   2  86.0684887034  40.4373013469  21.3892423419       1 -0.1576  # F
     208   1  85.6267504846  39.3816301421  22.2876670411       1  0.3275  # C
     209   2  85.5956015153  38.4006946538  23.0180672622       1 -0.1576  # F
     210   2  85.7316983755  40.0634331199  23.2452194817       1 -0.1576  # F
     211   1  85.0897401188  39.1245745171  21.8502916335       1  0.3275  # C
     212   2  84.7654952238  40.6723160881  21.4563303922       1 -0.1576  # F
     213   2  83.8841942710  38.6639439031  22.3500508684       1 -0.1576  # F
     214   1  84.5139421665  38.4383055975  21.4399681493       1  0.3275  # C
     215   2  83.7774872493  38.3055115426  21.3833218760       1 -0.1576  # F
     216   2  84.8814780829  39.7577755564  20.8717733162       1 -0.1576  # F
     217   1  84.8766014873  37.4154902764  21.2192883254       1  0.3275  # C
     218   2  84.5178399514  36.8261234736  22.2668463509       1 -0.1576  # F
     219   2  84.4554291158  37.4720426356  19.9204554583       1 -0.1576  # F
     220   1  85.7675192185  37.0310000538  21.6103745200       1  0.3275  # C
     221   2  85.3165726469  36.1174943705  22.4989039551       1 -0.1576  # F
     222   2  86.1192095174  37.8250578378  22.1986173451       1 -0.1576  # F
     223   1  86.5414554506  36.5808550385  20.7911643555       1  0.3275  # C
     224   2  86.3959594867  37.0874053264  19.7968564801       1 -0.1576  # F
     225   2  85.7313329172  35.3980034817  20.7376643899       1 -0.1576  # F
     226   1  87.9022024456  36.3382965641  21.0867858246       1  0.3275  # C
     227   2  87.8830661513  35.2401032132  21.6367829413       1 -0.1576  # F
     228   2  88.6957028707  35.9356442276  20.5893499466       1 -0.1576  # F
     229   1  88.7503410104  37.1354816438  21.1482051138       1  0.3275  # C
     230   2  88.4145275850  38.2915558226  20.6310244529       1 -0.1576  # F
     231   2  89.3109485231  36.3721221326  21.0096589907       1 -0.1576  # F
     232   1  89.1595255106  37.9756583155  21.7771906957       1  0.3275  # C
     233   2  88.4152739679  38.7916459825  21.7807666909       1 -0.1576  # F
     234   2  89.7557913799  37.4844388817  22.4115624500       1 -0.1576  # F
     235   1  89.7419263841  38.5398146772  22.3343141749       1  0.3275  # C
     236   2  90.3523496022  38.8168295627  21.4791623147       1 -0.1576  # F
     237   2  90.5682460517  37.7327929821  22.6042916552       1 -0.1576  # F
     238   1  89.0367563239  39.3929311657  22.7692250728       1  0.3275  # C
     239   2  88.5798468156  39.9977899921  22.6553953792       1 -0.1576  # F
     240   2  87.8021753640  39.0139283206  22.7914109078       1 -0.1576  # F
     241   1  89.6581445259  39.7923792467  23.1505847612       1  0.3275  # C
     242   2  89.4634212704  40.6641063137  23.1435504270       1 -0.1576  # F
     243   2  89.9235291706  38.9231759458  23.3633889666       1 -0.1576  # F
     244   1  90.9212916690  39.9760319356  23.0047215178       1  0.3275  # C
     245   2  90.4941776168  40.6345593179  22.6097559725       1 -0.1576  # F
     246   2  91.3865807707  39.1427182823  22.9662334956       1 -0.1576  # F
     247   1  91.6301007375  40.8019180894  22.7770447209       1  0.2465  # C
     248   2  90.8020650810  41.3114368712  22.8803960137       1 -0.1336  # F
     249   2  92.2727496025  40.2007274580  22.4923930205       1 -0.1336  # F
     250   1  91.9802244374  41.7773648922  21.9619577885       1  0.1317  # C
     251   2  92.1267157223  42.8936354438  21.8963587636       1 -0.1193  # F
     252   3  92.0035735107  41.1433251581  21.6668917964       1 -0.3109  # GFOc
     253   1  92.8320576878  40.6998532217  20.8096194582       1  0.4954  # C
     254   2  92.6624320416  39.4829316407  20.8976144360       1 -0.1280  # F
     255   2  93.4676644979  41.5718496804  21.2099951802       1 -0.1559  # F
     256   1  92.5793536835  40.9642883412  20.0372511225       1  0.0465  # C
     257   2  92.6687445674  42.1248501061  19.7125084291       1 -0.1122  # F
     258   1  91.6237504492  41.1560779679  20.2345709863       1  0.5842  # C
     259   2  90.8301591961  42.3122978205  20.2814454594       1 -0.1563  # F
     260   2  91.7753262035  41.7303883255  20.9366268836       1 -0.1736  # F
     261   2  91.3400181639  40.5430360710  20.6151589482       1 -0.1844  # F
     262   3  92.2693686912  40.2453310174  19.2124293596       1 -0.2516  # GFOc
     263   1  92.3722658853  39.3462497885  18.3339459126       1  0.4557  # C
     264   2  91.9900411141  38.4101278422  18.7805276322       1 -0.1368  # F
     265   2  92.2010104926  39.5218089241  17.3283436464       1 -0.1393  # F
     266   1  93.2562436460  38.5692793643  18.1685879496       1  0.1062  # C
     267   2  92.9244582339  38.0920155336  18.8721114741       1 -0.1457  # F
     268   2  93.5858900168  37.7848328393  17.5384198087       1 -0.1482  # F
     269   4  94.1778412553  39.0232178875  18.1468032732       1  1.1345  # GGS
     270   5  95.0528683759  39.6707933428  17.1887357316       1 -0.6371  # GOs
     271   5  95.3443863830  38.8107887042  18.1989894650       1 -0.6371  # GOs
     272   5  93.7854936178  39.4741881627  19.2318028553       1 -0.6371  # GOs
     273   1  92.7911198976  41.8550211832  21.9009470964       1  0.3275  # C
     274   2  92.9317551921  42.0803712760  21.2395838381       1 -0.1576  # F
     275   2  93.2846096254  41.0988373614  22.2593293259       1 -0.1576  # F
     276   1  93.5745746558  42.0186016875  22.6255850140       1  0.3275  # C
     277   2  94.7153347166  41.7998790382  22.1848854655       1 -0.1576  # F
     278   2  93.6382568072  43.0137962858  22.6523107868       1 -0.1576  # F
     279   1  94.0049632151  41.3135258269  23.3236379033       1  0.3275  # C
     280   2  93.0017129418  41.3754917165  22.9744920377       1 -0.1576  # F
     281   2  93.9159220748  40.3939746087  23.4632349147       1 -0.1576  # F
     282   1  94.6172948838  41.8820525309  23.7165323031       1  0.3275  # C
     283   2  95.0263783628  41.2294944987  24.3010241109       1 -0.1576  # F
     284   2  95.6273831513  41.6272582365  23.1523706669       1 -0.1576  # F
     285   1  94.5487156930  43.0564092859  23.5346605287       1  0.3275  # C
     286   2  95.0130410915  43.7581522689  24.4631473668       1 -0.1576  # F
     287   2  95.9159208109  43.2709695480  22.8465390809       1 -0.1576  # F
     288   1  93.8861278284  43.6755674939  22.8458016678       1  0.3275  # C
     289   2  94.1306457684  44.0337491255  23.8545399292       1 -0.1576  # F
     290   2  93.0547985087  43.0859585066  22.0703853676       1 -0.1576  # F
     291   1  93.2508599129  44.5596736914  22.8680094394       1  0.3275  # C
     292   2  93.9403520139  45.6290950221  22.7921396974       1 -0.1576  # F
     293   2  93.1117251585  45.3872257290  23.8790810111       1 -0.1576  # F
     294   1  92.1290095579  44.2171124919  22.4514282923       1  0.3275  # C
     295   2  91.8036168936  43.2216966998  23.1250663599       1 -0.1576  # F
     296   2  92.1488263944  44.4215725375  21.3695019577       1 -0.1576  # F
     297   1  90.9356783948  44.3778428023  22.3865711429       1  0.3275  # C
     298   2  90.2506155836  45.2531365945  22.4814931056       1 -0.1576  # F
     299   2  90.4861994559  43.9855600247  23.2258390623       1 -0.1576  # F
     300   1  90.1221349303  44.5811470113  21.5135972165       1  0.3275  # C
     301   2  89.6335859981  45.6854058506  22.0700248270       1 -0.1576  # F
     302   2  89.5580068957  43.8848210919  21.7025544790       1 -0.1576  # F
     303   1  90.2027659283  43.8968688847  20.9019430608       1  0.3275  # C
     304   2  91.2519870433  44.1744232948  20.7324017472       1 -0.1576  # F
     305   2  90.3301922713  42.7631680991  21.1744679734       1 -0.1576  # F
     306   1  89.4530264394  44.1877443353  20.0870617959       1  0.3275  # C
     307   2  89.0935905866  44.4701250775  18.9064735924       1 -0.1576  # F
     308   2  89.6467331395  43.5968675112  20.0715881847       1 -0.1576  # F
     309   1  88.6488005406  44.9303749348  21.0143646956       1  0.3275  # C
     310   2  88.4576452942  44.1271679516  21.7764237345       1 -0.1576  # F
     311   2  88.8043934761  45.2064611121  22.0420911477       1 -0.1576  # F
     312   1  88.8276375315  45.2372246959  20.2350415262       1  0.3275  # C
     313   2  89.9263439971  45.3267561118  19.9093262777       1 -0.1576  # F
     314   2  87.3738135637  45.3047355289  20.2402808277       1 -0.1576  # F
     315   1  88.4217015837  45.1715650557  19.2407795752       1  0.2465  # C
     316   2  88.2332433908  43.8386144789  18.7498726438       1 -0.1336  # F
     317   2  88.9495511839  44.7682629544  17.9923224452       1 -0.1336  # F
     318   1  87.3525037410  45.8636196075  19.0034601186       1  0.1317  # C
     319   2  87.2082663834  45.3854764815  17.9625820466       1 -0.1193  # F
     320   3  87.1122370730  46.0329201635  20.0468906457       1 -0.3109  # GFOc
     321   1  87.0527784568  46.7176164176  20.9784510217       1  0.4954  # C
     322   2  86.0542676629  47.2107398674  21.2439703597       1 -0.1280  # F
     323   2  87.4857862301  47.7009717781  20.9807224430       1 -0.1559  # F
     324   1  87.0320423620  45.8200981405  21.3368895364       1  0.0465  # C
     325   2  87.8097021085  45.0235838271  21.1659626148       1 -0.1122  # F
     326   1  86.6000894229  46.4364228778  22.2219998273       1  0.5842  # C
     327   2  86.2603143430  47.5909334651  21.9613922398       1 -0.1563  # F
     328   2  85.8072366047  46.4462630865  22.2575354467       1 -0.1736  # F
     329   2  86.9578535712  45.9805342847  23.0195065787       1 -0.1844  # F
     330   3  86.6189738836  45.0525446508  20.8055738553       1 -0.2516  # GFOc
     331   1  85.5902155299  44.5498378096  19.8440136672       1  0.4557  # C
     332   2  85.6704761556  43.6099807659  19.8637396402       1 -0.1368  # F
     333   2  85.4803362139  44.7126224555  18.6692588820       1 -0.1393  # F
     334   1  84.8123131692  45.1094726172  20.0796543551       1  0.1062  # C
     335   2  84.8456364669  45.5727660091  21.2231144244       1 -0.1457  # F
     336   2  85.1505773965  46.2326300818  19.7583580252       1 -0.1482  # F
     337   4  84.4779902640  44.4759943427  20.3528940768       1  1.1345  # GGS
     338   5  83.7199638396  44.9381381854  19.2899234011       1 -0.6371  # GOs
     339   5  85.1545070117  43.9092593290  21.1739381477       1 -0.6371  # GOs
     340   5  83.8791965748  44.2939445203  21.1764039950       1 -0.6371  # GOs
     341   1  87.1668632302  47.2446574627  18.5803050506       1  0.3275  # C
     342   2  87.7518894994  47.3673059982  17.7382699031       1 -0.1576  # F
     343   2  87.0928044301  46.1838079217  17.9918387056       1 -0.1576  # F
     344   1  86.8675393218  48.2790805328  19.2573423809       1  0.3275  # C
     345   2  86.4677528443  47.4350556181  19.8394266765       1 -0.1576  # F
     346   2  87.6928943806  48.6468632751  20.1629901078       1 -0.1576  # F
     347   1  85.9619916924  48.7977545117  18.8583378849       1  0.3275  # C
     348   2  86.6141089429  50.1038435948  18.3077358863       1 -0.1576  # F
     349   2  85.2955740239  48.3880148361  18.2166774709       1 -0.1576  # F
     350   1  85.4273451285  49.2104372388  19.8739400671       1  0.3275  # C
     351   2  85.0217915834  49.7859239232  19.8536198652       1 -0.1576  # F
     352   2  84.5893880522  49.1681024908  19.3496654995       1 -0.1576  # F
     353   1  86.0543859140  49.0845617080  20.7404926084       1  0.3275  # C
     354   2  87.0810104874  48.6117062749  20.6169369984       1 -0.1576  # F
     355   2  87.2347416019  49.4359916573  21.2528049722       1 -0.1576  # F
     356   1  85.2223899663  49.2719096313  21.4817529776       1  0.3275  # C
     357   2  84.2665231254  49.5936381538  21.1328502687       1 -0.1576  # F
     358   2  84.8123547926  48.4969140324  21.9881606011       1 -0.1576  # F
     359   1  85.1622706858  49.5687582403  22.5437468816       1  0.3275  # C
     360   2  84.3886960934  49.3314104115  22.7640759871       1 -0.1576  # F
     361   2  86.1467945158  49.3166982021  22.6928634061       1 -0.1576  # F
     362   1  85.1059069815  50.5634425865  23.0076291415       1  0.3275  # C
     363   2  83.9350280852  50.2836421912  23.3086472674       1 -0.1576  # F
     364   2  84.7298068676  51.0998098605  22.4670261412       1 -0.1576  # F
     365   1  86.2984872760  50.7551784196  23.4719582685       1  0.3275  # C
     366   2  87.0122449601  51.0044520703  23.9416478740       1 -0.1576  # F
     367   2  86.7788589590  51.0380585486  22.6633356537       1 -0.1576  # F
     368   1  86.6696958832  49.4371127863  23.4676747682       1  0.3275  # C
     369   2  85.2725063004  49.1414824995  23.2908705403       1 -0.1576  # F
     370   2  87.2273442315  49.6007664436  24.4463735560       1 -0.1576  # F