122304
Atoms. Timestep: 0
C 11.9529 36.3006 33.2985
H 11.3952 36.5494 32.7241
H 12.2412 35.0848 32.7606
N 13.0798 36.5309 33.4285
H 13.6058 36.9631 34.2082
H 13.1827 36.9418 32.4784
H 13.3221 35.9029 33.756
C 11.3961 36.3924 34.406
H 11.0621 35.2595 34.7107
H 10.5098 36.6656 34.1326
C 11.8114 36.8419 35.7774
H 11.8076 35.7859 36.6061
H 12.6243 37.2531 34.9344
C 11.983 37.4183 36.8076
H 12.0646 36.8115 37.4641
H 11.1314 37.9788 36.1264
C 13.2329 38.1676 36.9176
H 13.1463 38.3817 35.8264
H 13.0913 39.0542 37.0158
C 13.9339 38.7942 37.2002
c 14.2546 39.555 36.2562
c 15.1453 39.7056 35.4516
H 14.6155 38.7912 35.0193
c 15.0399 40.8803 35.517
H 15.8797 41.1918 34.2817
c 14.7121 41.1934 36.7889
c 14.8249 42.0823 37.1296
c 14.3559 43.1015 36.8748
H 13.4874 43.3711 36.2162
c 14.9674 43.6708 37.4205
H 15.4908 44.7076 37.5796
c 16.1935 42.6492 37.3433
c 16.5304 41.6428 37.0897
c 17.1122 41.3187 36.9713
H 17.9965 40.4931 36.8483
c 17.3309 41.9794 36.0463
H 18.031 42.956 35.9736
c 16.6415 41.726 35.059
c 15.5808 41.5174 35.0784
H 14.9277 41.8284 34.1404
c 15.8243 41.2485 36.2118
H 15.4324 39.6782 36.267
c 15.5155 41.3554 38.0366
H 16.1136 40.7327 38.6343
c 15.1566 42.1598 38.2763
H 15.3264 42.7814 39.385
c 13.8164 40.6388 38.1833
H 12.6913 40.3698 38.4516
c 14.5931 40.414 37.2703
H 15.54 40.0577 37.5099
C 14.0567 38.5863 38.1082
F 15.34 38.5786 38.2303
F 12.9206 38.2274 38.3813
F 14.4482 39.2541 38.691
C 15.8457 38.0337 32.6471
H 15.8244 37.0361 31.969
H 16.3331 38.9921 31.9376
N 15.0943 38.4661 32.3412
H 14.4962 38.6994 31.6511
H 14.6002 37.4708 31.8798
H 14.1963 38.9481 32.9648
C 16.2171 37.9124 33.4442
H 15.0351 37.2414 33.865
H 17.0767 37.1798 33.9647
C 16.2043 38.8091 33.9271
H 16.5291 38.3019 34.8829
H 15.3018 39.0988 33.4501
C 16.5298 39.7677 33.4148
H 17.7534 40.0314 33.5184
H 16.7078 39.7131 32.2122
C 15.7748 40.5042 33.8407
H 15.1401 40.2022 34.2384
H 15.1827 40.9507 33.1085
C 16.7979 41.2219 33.8522
c 17.6855 40.6251 33.7353
c 18.1799 40.1866 34.9072
H 17.2579 39.8594 35.4845
c 19.1619 40.5114 34.4783
H 20.1581 39.9729 35.1589
c 19.3094 40.856 33.5567
c 20.2191 41.5304 33.1541
c 20.8346 42.1792 32.7598
H 21.9282 41.3702 32.5655
c 20.757 43.5753 32.4018
H 21.8544 44.3861 32.8158
c 20.8053 42.2394 31.8149
c 21.7386 41.9115 31.2061
c 21.993 42.5481 30.62
H 22.422 42.3611 29.7238
c 23.1473 42.4712 31.539
H 24.4329 42.8091 30.8384
c 23.7181 41.4276 31.9028
c 23.3773 40.9158 31.3471
H 24.0014 40.5453 31.0373
c 22.2884 41.0486 31.214
H 21.7589 40.198 31.5372
c 20.1225 40.9341 31.9195
H 19.1483 41.2831 31.1743
c 20.5343 40.4602 32.6621
H 20.5746 39.8925 33.1659
c 18.8323 39.9608 32.8697
H 18.589 39.5605 33.8013
c 18.0606 40.5013 32.7531
H 18.5398 41.1175 32.2424
C 16.561 41.9017 32.9925
F 16.1135 42.5236 33.4273
F 16.6974 42.0055 32.0697
F 15.7213 41.0924 33.7994
C 25.9233 38.2465 33.8828
H 25.9322 38.6784 34.6773
H 26.118 39.0935 33.1585
N 25.5411 37.4142 34.1901
H 25.3624 36.7326 33.8308
H 25.1543 37.6029 34.9409
H 25.9337 36.6564 34.5305
C 25.1053 38.293 33.1828
H 25.4384 38.2004 31.7816
H 24.5785 36.8699 33.6089
C 23.7928 38.8624 33.0133
H 23.1006 38.2913 32.7077
H 24.0515 39.3506 32.0127
C 23.5009 39.5796 33.9549
H 22.6654 39.9827 34.2953
H 23.1133 39.7823 35.005
C 24.2224 40.4595 33.2697
H 23.6844 40.4155 34.0129
H 25.1541 40.307 32.7616
C 24.517 41.6584 32.9283
c 24.3166 42.2683 33.688
c 23.2751 42.2848 34.3382
H 22.8012 41.7197 35.2732
c 22.5101 43.4652 33.922
H 21.9411 44.0751 33.8718
c 23.9418 43.4306 34.1275
c 23.6164 42.7468 34.0443
c 22.5963 42.0358 33.6848
H 21.5714 42.1245 33.4628
c 22.9563 41.3731 32.7839
H 22.9609 40.6767 32.8244
c 23.0852 43.1859 33.8985
c 23.1609 44.2982 33.3602
c 22.9019 44.918 32.5653
H 22.1234 44.866 31.4306
c 23.7264 45.7012 33.1556
H 24.244 46.379 33.2207
c 24.6301 44.8363 32.4476
c 24.4055 44.3916 33.4965
H 24.6068 43.4498 33.3137
c 23.9314 44.594 34.0132
H 24.2718 45.3012 35.0496
c 23.2152 44.4315 35.7956
H 23.035 45.1166 36.696
c 23.2695 43.5691 35.1122
H 24.3849 43.5815 35.3712
c 25.3829 43.7578 34.3074
H 25.929 43.7704 33.5632
c 24.5059 42.9617 34.1905
H 23.516 42.891 33.1104
C 25.5135 42.2156 32.7415
F 26.5514 41.8274 32.7388
F 25.7196 42.6073 33.5624
F 25.2587 42.9945 31.9918
C 23.6626 43.7385 29.4279
H 23.7682 44.6676 28.5139
H 23.2223 43.8569 30.5464
N 22.9756 43.1492 28.7062
H 23.0134 42.3188 27.9409
H 23.4946 42.0479 28.8981
H 22.2061 43.9131 29.1048
C 24.857 43.1638 29.5032
H 24.6818 43.8368 30.199
H 24.7289 42.4073 29.057
C 25.6968 43.0219 29.7726
H 25.7879 42.1431 30.0535
H 26.771 42.7467 30.0022
C 26.0423 44.3519 29.8482
H 25.2911 44.583 29.449
H 27.2371 44.8315 29.6959
C 25.3711 44.8007 30.969
H 25.4805 45.9695 30.5549
H 24.2662 44.7004 30.2095
C 25.3218 44.3972 31.9784
c 26.3666 43.9343 32.4326
c 26.7842 42.7519 32.9473
H 26.3676 43.1955 34.1327
c 27.0823 41.8396 33.5976
H 27.436 41.2623 34.6101
c 26.7676 43.8968 33.313
c 27.22 44.7563 33.6286
c 26.844 45.6549 34.3685
H 25.8135 45.9254 34.9683
c 27.5789 45.7855 33.6775
H 28.1305 45.7259 34.6527
c 28.2981 45.7745 32.9857
c 28.6626 46.8432 33.5876
c 29.0514 47.3326 32.5829
H 28.5851 47.0066 31.8636
c 29.3626 48.5613 33.1465
H 30.3736 48.6247 33.5849
c 27.6099 48.2807 33.8866
c 27.3408 46.9616 34.5744
H 27.1327 46.2655 35.5948
c 27.9427 47.2134 34.0034
H 28.663 47.9438 34.4338
c 28.5502 44.7337 33.0404
H 29.1188 44.425 32.3928
c 27.9481 44.1122 33.7151
H 28.0421 44.7741 34.6757
c 26.907 45.4486 33.2093
H 26.0443 46.8264 32.3092
c 26.5097 45.1293 32.514
H 26.1298 45.6147 31.7063
C 24.6019 43.443 32.4854
F 23.8088 42.6256 32.2954
F 24.0159 44.0963 32.3311
F 25.2498 43.096 33.1382
C 23.693 50.9039 34.7512
H 24.4365 50.0881 35.5383
H 23.2214 51.5339 35.0271
N 24.1738 51.8544 34.8614
H 25.0599 51.7185 35.6409
H 23.3882 52.335 34.9416
H 24.6304 52.512 34.1055
C 23.7078 50.4869 33.5893
H 22.5556 51.5249 34.022
H 22.8115 50.3063 33.1859
C 24.4721 50.8507 33.1479
H 23.9295 50.6656 32.2159
H 24.8021 51.7346 32.7214
C 25.5929 49.8011 33.7903
H 26.5902 49.9308 33.3418
H 24.6674 50.0323 34.6421
C 26.1888 48.9257 33.9751
H 26.5389 47.7061 34.096
H 25.9883 49.9045 34.7374
C 26.9597 48.3515 32.9835
c 26.7733 48.293 31.852
c 25.8637 48.3001 31.7421
H 25.0946 48.7777 31.671
c 25.5548 47.9132 30.7616
H 24.7033 47.2848 31.1038
c 26.2208 47.7407 30.5276
c 25.4809 47.0952 31.153
c 25.2238 47.5675 32.0821
H 25.3266 46.3 32.3887
c 24.6221 48.0224 32.3862
H 24.7866 48.3083 33.1757
c 23.9206 48.0828 31.6418
c 23.5911 48.9053 32.3557
c 23.6952 47.8581 32.2647
H 23.3422 47.2722 33.3072
c 23.7713 47.2488 31.7788
H 23.7174 46.0019 32.1174
c 24.7485 48.1403 31.3663
c 24.9543 49.1223 32.4473
H 25.6779 48.9159 33.2348
c 24.0432 49.6796 32.1939
H 23.0452 50.5732 31.9188
c 24.0661 47.2624 30.6102
H 24.1359 46.6806 29.5452
c 25.0465 46.3452 30.9413
H 24.7187 45.6497 30.2491
c 27.2296 47.285 30.4774
H 28.1948 46.8304 30.3403
c 27.2798 47.6093 31.1089
H 27.7058 46.8838 31.6398
C 27.0841 47.1548 33.0677
F 26.2291 46.6264 33.8722
F 27.9241 47.4636 32.4759
F 27.811 46.2539 32.3853
C 23.1952 48.6125 35.7828
H 23.2669 47.4813 36.5073
H 23.6852 49.0625 36.5768
N 22.8114 48.3293 35.4799
H 21.9307 48.9143 35.4982
H 22.8197 48.0638 36.875
H 22.9252 47.5209 34.831
C 23.3153 49.1681 34.9414
H 24.0965 48.9653 34.0919
H 22.4101 49.1178 34.5689
C 23.1074 50.2833 34.1092
H 22.7395 50.5493 34.7351
H 24.1882 50.7885 34.2772
C 23.9515 50.1432 32.815
H 23.6978 49.0835 33.2647
H 23.8314 51.1748 32.3834
C 24.8212 50.2384 32.3352
H 25.3813 50.1542 33.1748
H 24.9108 51.0437 32.0433
C 24.8558 49.3793 31.0065
c 24.8688 48.7583 29.9002
c 24.2547 48.8407 29.3569
H 25.1227 49.4891 28.7179
c 23.566 48.1102 29.2971
H 22.7706 47.339 29.6934
c 24.1719 47.514 28.4751
c 23.7831 46.9276 27.7944
c 24.3946 45.9502 27.2587
H 25.4935 45.7983 28.2677
c 23.1801 45.5046 26.8691
H 22.7642 44.7847 27.1598
c 23.1246 45.9316 26.1033
c 24.0495 46.1199 25.3004
c 25.1933 45.8983 24.2551
H 25.8515 46.6866 24.2055
c 25.9027 45.1295 24.3722
H 26.0268 44.6082 23.5493
c 25.4202 45.8905 24.8932
c 25.0273 46.9727 25.1402
H 24.8383 47.5983 24.7368
c 24.8396 46.5468 26.6268
H 25.0633 46.5624 27.572
c 23.0045 46.399 26.5538
H 22.096 46.771 26.4199
c 22.8059 46.7566 27.4837
H 22.4338 47.5724 27.6441
c 25.6151 47.9414 27.8848
H 26.1784 48.1894 27.1771
c 25.7833 48.375 29.1256
H 26.5586 49.0446 28.6969
C 24.8872 50.0475 30.2633
F 24.2501 50.1778 30.385
F 25.9341 49.9524 29.7734
F 24.293 49.6113 29.5529
C 23.4125 42.9186 27.9201
H 22.4209 42.7764 28.8528
H 23.9014 44.2237 27.2946
N 24.3678 42.4538 27.9042
H 24.0293 41.668 28.2929
H 24.0689 41.6077 27.163
H 25.4844 42.2825 28.1479
C 23.1647 42.563 26.6161
H 23.1882 41.6436 26.8579
H 23.3817 42.3909 25.8257
C 22.754 43.1086 25.9571
H 22.0835 42.717 25.3428
H 22.7323 43.7447 26.4604
C 23.516 44.25 25.6077
H 23.3716 45.0427 26.0221
H 24.2043 43.9261 26.4624
C 23.6067 44.8242 24.771
H 24.7143 44.892 23.9505
H 22.7019 44.9685 24.2657
C 24.4244 45.5172 25.0796
c 23.6361 46.6947 25.9506
c 23.1476 47.303 25.141
H 22.9627 47.152 24.2158
c 22.7756 47.9721 25.5522
H 22.4999 48.3804 24.5666
c 22.9279 48.1657 27.0367
c 22.3098 48.8399 27.4664
c 21.71 49.0939 27.0747
H 21.5891 48.8379 26.005
c 21.245 49.6159 27.9579
H 20.592 50.0759 27.2104
c 21.9284 49.995 29.0235
c 22.7574 50.7677 28.648
c 22.9448 51.5786 27.9209
H 23.3454 50.5175 27.2918
c 22.395 52.3109 28.7445
H 21.8854 53.6145 28.1564
c 21.8805 51.9419 30.2125
c 22.8634 51.5725 30.5146
H 22.9186 52.3626 31.1881
c 22.9314 51.363 29.4243
H 22.6667 52.6262 29.4847
c 22.752 49.9188 29.8916
H 23.594 50.3538 30.6731
c 22.5073 49.3203 28.5266
H 23.1151 50.2692 28.0486
c 24.2107 48.3021 26.992
H 24.5219 49.5664 26.3342
c 24.1858 47.3029 26.987
H 23.6234 46.424 27.7351
C 24.721 44.3467 24.9146
F 25.6005 43.8066 24.7465
F 25.3821 43.7556 25.8356
F 23.9787 44.2553 24.0182
C 22.1793 49.4617 30.9346
H 21.5738 49.6363 31.856
H 22.489 48.6811 31.1315
N 20.9976 49.5462 29.7921
H 20.867 49.7195 28.7164
H 20.3947 48.7243 30.1418
H 20.2099 51.0487 29.6395
C 22.5346 50.0173 31.471
H 22.6705 49.7306 32.152
H 21.3486 50.9398 31.722
C 22.4129 50.9319 32.6262
H 21.8259 50.5594 32.9811
H 22.9764 51.0093 32.7503
C 22.0635 51.6438 32.6732
H 22.5045 51.9884 32.9157
H 22.5695 51.4162 31.7285
C 21.0088 52.1496 31.7386
H 20.8215 53.2631 31.4495
H 20.6004 51.434 32.0074
C 21.1353 51.7692 30.6761
c 21.0953 51.0056 30.2736
c 20.9078 50.4686 31.075
H 19.9412 50.4658 31.177
c 20.6667 49.6965 30.3234
H 19.4707 49.6165 30.0669
c 21.2824 48.8572 30.5282
c 21.0721 48.064 31.2717
c 21.2253 47.6784 32.1268
H 21.9152 47.1197 32.9129
c 20.6291 47.0388 31.9241
H 20.3715 46.6817 32.5765
c 20.6818 45.987 30.8138
c 20.9325 45.1641 31.5545
c 20.4829 44.4597 32.6355
H 21.0759 43.737 33.7919
c 19.712 45.4031 32.4214
H 19.7996 44.9516 33.338
c 19.8425 46.5184 31.6417
c 21.0166 47.1039 31.206
H 20.9393 48.1255 30.5512
c 21.3037 46.1589 31.9581
H 21.8729 45.9592 32.6545
c 21.7003 45.8653 29.8696
H 22.55 45.4459 29.5259
c 21.7043 46.9027 30.6575
H 22.3256 46.5293 31.3157
c 21.7168 49.3567 29.3869
H 21.8975 48.4458 28.4258
c 21.4874 50.4644 29.1317
H 21.4493 51.2945 28.5603
C 20.2758 52.4077 30.4077
F 20.4264 52.5743 29.3312
F 19.5173 52.3192 31.3157
F 20.0256 53.2599 30.413
C 20.4153 50.3903 32.1666
H 19.8881 49.8909 33.0326
H 21.0649 50.6324 32.6112
N 20.8918 49.9787 31.5973
H 21.4063 48.6823 31.5512
H 20.2136 49.9264 30.8278
H 21.9297 50.6031 31.3392
C 19.6447 51.1257 31.7701
H 19.5942 51.5724 30.5424
H 18.736 52.1341 32.1269
C 18.8285 50.5032 31.7044
H 17.929 50.7005 32.0448
H 18.1201 50.9567 30.6958
C 18.6595 49.1357 31.9361
H 17.7017 49.5009 32.5435
H 17.5515 48.9776 31.3794
C 19.8006 48.2871 32.2805
H 20.7374 48.9898 32.5212
H 19.8968 49.1868 33.3349
C 19.6113 47.2863 31.9222
c 19.5736 47.8184 30.6849
c 19.9002 47.5848 29.9138
H 20.4983 47.9709 30.0146
c 20.4419 46.4925 29.1767
H 19.6151 45.9549 28.6456
c 20.1983 48.3722 29.103
c 20.5864 49.0641 28.5286
c 20.9855 48.5607 27.7491
H 20.3809 48.5693 26.7928
c 21.6774 49.2848 28.7234
H 21.2204 48.6002 29.5337
c 21.0978 50.2567 29.1136
c 21.5457 49.8786 29.8724
c 22.2832 48.8934 30.2211
H 22.8398 49.2799 29.5102
c 22.4758 47.9673 30.4144
H 21.9414 47.1593 29.8602
c 23.0962 49.5841 30.4686
c 22.8038 50.8472 30.9279
H 23.5291 51.7898 31.2833
c 22.0855 50.6326 30.277
H 22.1726 50.9501 29.5314
c 20.718 51.3656 28.8339
H 20.8732 52.0637 29.2137
c 20.3705 50.4757 29.1963
H 20.5435 50.4437 30.069
c 18.8374 49.1323 29.9521
H 18.5131 50.1455 29.2876
c 19.6181 48.6868 30.8561
H 20.2898 49.197 31.5137
C 19.847 47.2636 33.2183
F 19.4817 46.3745 33.5465
F 20.1661 47.9451 33.8966
F 21.2989 47.2075 33.6572
C 23.6507 50.1748 25.2119
H 23.2176 51.1439 25.2036
H 23.6811 49.2716 24.5591
N 23.0692 49.9889 24.3872
H 23.17 49.483 23.7406
H 23.9505 50.4139 23.968
H 22.5324 50.7633 24.5496
C 23.7784 49.5981 26.132
H 24.3316 48.7128 25.9309
H 24.0631 50.545 26.5506
C 23.1035 49.3373 27.182
H 22.7374 49.4248 26.3225
H 22.2645 50.1099 26.8922
C 23.1682 48.8896 28.0868
H 22.198 49.8008 28.0046
H 23.5608 47.7836 27.2792
C 23.7456 49.171 29.1513
H 23.7518 48.7148 29.7894
H 24.6007 48.1907 28.8609
C 23.3657 49.8903 29.401
c 23.7968 50.6938 29.5371
c 24.8611 51.0632 30.0999
H 25.1111 51.7964 30.7533
c 25.9596 51.2359 30.3873
H 26.8241 50.8128 30.3961
c 25.276 52.241 30.1618
c 25.469 53.1375 29.7374
c 25.2028 53.9686 29.0822
H 26.4997 53.8797 28.9444
c 24.456 54.521 29.3279
H 23.6166 55.2827 28.7556
c 26.196 54.3169 30.0789
c 26.3418 55.1177 30.6136
c 27.2221 56.0879 30.92
H 26.8406 56.4137 31.7164
c 28.0671 56.485 30.6928
H 29.2126 56.6486 30.2246
c 26.651 55.4284 30.3444
c 25.3371 55.5664 30.607
H 24.2592 55.7387 29.6848
c 25.6349 55.2097 31.2252
H 25.4794 55.2901 32.2672
c 27.103 53.1925 30.6688
H 27.2821 52.6734 30.8172
c 26.2688 53.0967 29.9473
H 27.2186 53.3699 29.6661
c 24.8004 52.3585 29.3674
H 24.9962 52.8137 28.6538
c 24.2015 51.4991 29.2164
H 25.0511 51.7073 29.0669
C 23.1797 51.1447 28.6932
F 23.3742 51.9902 29.413
F 22.3893 50.577 27.8864
F 22.3961 51.5801 29.0338
H 14.5016 38.3431 37.1241
H 27.042 55.3429 29.5886
Cl 39.4993 42.793 3.25447
Cl 31.4918 34.4876 16.6341
Cl 3.49435 5.74967 23.4926
Cl 42.8374 41.1572 29.5177
Cl 19.545 38.4537 36.5056
Cl 28.3665 38.618 25.1416
Cl 46.7583 17.3002 21.6057
Cl 52.2436 38.9381 12.4303
Cl 39.3633 31.3981 0.857385
Cl 33.8861 0.760943 16.2604
C 34.3906 11.905 28.7009
H 33.6503 12.5664 28.8376
H 35.1586 11.4993 29.4576
N 35.4265 12.728 28.4453
H 34.7746 14.2431 28.0826
H 35.9705 12.2508 27.2353
H 36.0069 13.5963 29.1507
C 34.482 11.6745 27.6174
H 33.5138 11.4965 27.1186
H 35.352 10.5637 27.8995
C 34.8633 12.0535 26.8634
H 35.866 11.6637 27.6818
H 34.4935 10.949 26.3666
C 34.8442 13.2691 25.9765
H 34.2079 13.6774 25.2193
H 35.7069 13.3293 26.4041
C 35.503 14.3101 24.8845
H 35.9489 15.1883 24.5072
H 34.6124 14.4225 24.0686
C 36.4669 14.9967 25.0549
c 37.4866 15.1894 24.2619
c 38.1268 14.9634 23.2411
H 39.4853 14.3949 23.4882
c 37.6423 15.9894 23.0041
H 37.1248 16.7276 21.9801
c 38.1749 16.6013 23.8645
c 37.7546 17.5737 23.258
c 37.9853 18.4567 23.921
H 38.987 18.6854 23.8969
c 37.2991 18.7923 23.7013
H 37.1403 19.3875 24.3256
c 37.6322 18.7059 22.6325
c 37.6067 19.8351 22.474
c 38.8133 20.0173 22.6553
H 38.3954 19.7373 23.6505
c 39.4993 20.5993 21.9109
H 40.5855 21.156 21.8034
c 37.7794 21.194 21.863
c 36.4012 21.4668 22.2306
H 36.0247 22.5759 22.7722
c 36.6762 20.5542 22.6519
H 36.8569 20.0563 22.7366
c 38.2204 18.1225 22.4959
H 39.3346 18.3218 21.8018
c 38.3746 17.5836 22.1056
H 39.0327 16.8375 22.9918
c 38.599 16.6385 24.7964
H 39.4323 17.5687 24.8706
c 38.2524 16.028 24.9787
H 37.4451 16.3746 25.9765
C 36.5671 14.1589 25.8062
F 37.0886 13.1567 25.9992
F 36.9249 14.8327 26.3621
F 35.7284 13.6855 25.415
C 35.2881 18.3205 20.9731
H 35.4914 18.6543 20.015
H 36.3426 18.4756 21.5157
N 35.2676 17.3957 20.8337
H 34.1935 16.6616 21.6184
H 34.5197 16.9923 20.1169
H 36.3765 17.6132 20.8945
C 34.8104 18.7776 21.5934
H 34.1599 18.5066 21.7965
H 35.0964 19.1317 22.4873
C 34.8279 20.0698 21.0355
H 34.5776 19.9055 20.012
H 33.74 20.5843 21.4323
C 35.5373 20.5981 21.0914
H 35.2131 21.5105 20.7668
H 35.4827 20.8049 21.9168
C 36.5131 20.4099 20.8847
H 36.2248 20.2863 19.5802
H 37.1381 19.7839 21.4974
C 37.4406 20.9526 20.672
c 37.1581 21.6413 20.4617
c 37.2794 22.8006 19.8239
H 37.5268 24.0865 20.5251
c 35.953 23.1479 20.3437
H 35.9609 24.4211 19.9636
c 35.1772 22.7992 21.1672
c 34.4339 22.9178 21.812
c 33.6063 23.521 22.0599
H 33.9375 23.9297 20.8361
c 33.576 23.1079 23.1587
H 32.617 23.1314 23.5311
c 34.163 22.8175 23.8777
c 34.1969 22.2544 25.184
c 34.9529 21.2956 25.7817
H 34.8542 20.4177 26.2463
c 35.1098 21.9972 26.6172
H 35.7436 21.979 27.4093
c 34.0116 21.1368 25.8019
c 33.2565 20.151 24.5629
H 33.5989 19.5649 24.0349
c 33.7756 21.2621 25.0823
H 34.6744 20.4971 24.734
c 34.5735 22.1544 23.3074
H 35.0305 21.0789 23.2581
c 34.4173 22.151 22.3049
H 34.7439 21.3739 21.8045
c 36.1304 22.1619 21.6728
H 36.8665 22.995 21.6926
c 36.2701 21.6902 20.9974
H 35.7626 22.494 20.6184
C 37.7583 20.3389 19.6753
F 36.9461 19.8539 20.2201
F 36.7419 20.2312 18.324
F 38.5341 19.5753 20.321
C 31.0371 23.8216 30.3408
H 31.3503 24.6426 30.7703
H 29.698 24.1581 30.7178
N 31.1255 22.823 30.6232
H 29.5503 22.6919 30.5771
H 32.1811 22.9625 30.6275
H 31.2782 22.158 31.1745
C 31.2523 23.8487 29.08
H 30.3673 23.4094 28.6737
H 30.5085 24.4329 29.3683
C 32.3912 23.6072 28.7765
H 33.2932 24.2809 28.3438
H 32.4495 23.9308 29.8171
C 32.133 22.9198 27.5721
H 30.8029 22.4512 27.2229
H 32.2381 23.7316 26.8642
C 32.9118 21.8262 26.8643
H 32.6462 21.3117 27.5617
H 32.2334 21.429 26.2733
C 33.5892 21.0779 26.8082
c 33.5671 20.0484 26.978
c 33.7611 19.5186 27.8111
H 32.927 19.5786 28.1871
c 34.4479 19.028 27.8499
H 34.3534 18.5858 29.1295
c 34.9958 18.1787 26.8936
c 34.433 17.5519 27.5862
c 34.8688 16.3281 27.3804
H 34.5165 15.3596 27.8059
c 34.9603 15.6687 26.5655
H 35.2082 14.8174 26.7323
c 35.2661 17.1582 27.8361
c 36.1084 17.6978 27.8844
c 37.1974 18.8823 28.1394
H 37.4819 20.0708 29.0361
c 37.9101 19.8607 28.4227
H 38.8463 20.2596 28.6576
c 37.8177 18.5937 28.9422
c 37.786 17.5946 28.3483
H 38.3383 17.2072 27.6853
c 36.7527 17.3617 28.2549
H 36.0242 17.1514 29.0429
c 35.6554 18.8611 28.8926
H 36.7175 19.4007 29.108
c 35.0091 18.6752 28.0735
H 35.1103 19.7282 27.8658
c 35.5718 18.7319 26.4013
H 36.0001 18.0014 25.2571
c 34.7381 19.5495 26.6917
H 34.4261 19.2238 25.7034
C 34.0347 21.274 27.5548
F 34.2867 22.3606 27.6126
F 34.3318 21.0653 28.8923
F 34.6521 20.8919 27.0425
C 40.8387 18.8135 31.7158
H 40.3897 20.0779 32.3218
H 40.1757 18.9061 32.2198
N 41.979 18.7732 31.1496
H 42.973 19.7486 31.5105
H 42.1308 17.7115 30.3481
H 42.1053 18.869 30.1666
C 40.8237 18.615 30.9144
H 41.3225 19.7718 30.7022
H 41.254 17.7149 30.2523
C 39.8489 18.5435 30.4646
H 40.4517 18.1165 29.4799
H 39.8393 19.3744 30.2488
C 38.9554 18.18 30.3877
H 38.1457 18.6748 30.2969
H 38.9582 17.7432 29.7077
C 38.8307 17.7429 31.1612
H 39.3014 18.3102 31.8471
H 38.742 16.7544 31.3689
C 37.9565 17.905 30.183
c 37.649 18.0705 31.1923
c 36.7305 17.8854 32.094
H 37.3192 17.1986 32.9383
c 35.536 17.6796 31.8239
H 34.5038 17.9249 32.3933
c 36.7587 19.0708 31.4795
c 36.4784 19.9362 31.7751
c 35.6058 20.0197 32.2443
H 35.4269 20.6975 32.57
c 35.3538 20.0592 33.0847
H 34.7473 19.0397 33.8837
c 36.7516 20.7272 32.9167
c 37.3975 20.6312 33.8025
c 37.8499 21.6391 34.0681
H 38.3186 22.281 34.471
c 36.6917 21.6646 34.3547
H 36.3994 22.1857 34.5916
c 35.4613 21.2426 34.3619
c 35.9421 20.4408 35.0099
H 36.688 19.4673 35.48
c 36.8874 20.2391 34.9631
H 37.1629 20.4161 36.0204
c 36.8741 21.3695 31.9979
H 36.6514 22.6737 31.6953
c 37.213 20.2681 32.0807
H 37.9672 20.353 32.8932
c 37.6387 19.4644 31.191
H 37.7674 20.2153 30.4133
c 38.1944 19.0921 31.626
H 38.7676 19.6947 31.9324
C 37.2663 16.9107 30.0456
F 37.2851 15.8315 29.5941
F 36.521 17.1306 30.7428
F 38.0656 16.1587 30.369
C 37.7284 18.224 36.1806
H 39.3149 17.8777 35.9053
H 37.6309 18.3764 35.1745
N 37.5825 17.4847 36.6345
H 37.173 17.4108 35.792
H 38.164 16.7977 36.3078
H 37.8357 17.1926 37.6025
C 36.5329 19.1686 36.6138
H 36.0297 18.375 35.8095
H 35.3786 19.3359 35.787
C 36.145 20.1575 37.2126
H 37.0581 20.7885 37.4521
H 34.909 19.0558 37.1117
C 35.3187 20.3906 36.7515
H 35.4041 20.1432 35.7596
H 34.6197 19.6006 37.5968
C 34.7344 21.0321 36.2444
H 34.1263 20.1 36.3846
H 35.067 21.987 36.7076
C 34.5244 21.4281 35.1967
c 35.1612 22.2462 35.5957
c 36.506 22.6584 35.64
H 37.7538 22.5389 35.6375
c 36.3655 23.7223 36.3815
H 36.645 24.8613 36.1478
c 35.7057 23.5434 37.3397
c 36.3456 23.5049 38.2279
c 36.8301 24.2494 39.4481
H 36.2138 24.1095 40.1113
c 37.8689 24.1342 39.6963
H 38.2381 23.8991 40.4433
c 37.3226 22.8965 39.5546
c 38.6089 22.2426 39.4611
c 39.1259 21.3119 39.5223
H 38.4065 21.1262 40.2818
c 39.86 21.1209 39.9499
H 39.4281 20.1 40.6787
c 39.8158 21.8497 39.2413
c 39.4484 23.7332 38.7194
H 39.7001 24.5575 39.2311
c 38.9459 23.28 39.2501
H 39.406 23.917 40.1095
c 36.204 21.5318 38.929
H 35.2182 21.7319 39.2559
c 36.4908 22.2636 38.7754
H 36.0347 22.4782 37.7623
c 34.597 23.2414 37.3099
H 34.1444 23.4507 38.362
c 34.7219 22.9162 36.2522
H 35.5178 23.686 35.9536
C 33.5393 21.6257 34.7497
F 33.8287 21.8714 33.6174
F 32.4797 22.1003 35.2061
F 33.5953 20.4783 34.6244
C 36.945 20.6938 41.0266
H 36.0871 20.9082 41.3974
H 36.9185 20.0809 39.953
N 37.1416 21.4863 41.7476
H 36.2976 21.0819 42.4324
H 37.6996 22.4568 40.9776
H 37.7069 21.6566 42.3851
C 37.989 20.3306 41.1397
H 37.9308 19.0032 41.5209
H 38.146 20.8582 41.7375
C 38.8134 20.238 40.9171
H 39.6887 19.9973 41.6613
H 40.014 20.7199 40.9164
C 38.9461 19.7898 39.8638
H 38.7281 19.0661 40.187
H 38.1076 19.5791 39.5549
C 39.2915 20.2833 38.8544
H 38.5592 20.2144 38.34
H 40.1823 19.8065 38.4984
C 39.4912 21.435 38.6425
c 39.6464 21.3341 37.544
c 40.5887 21.1603 37.376
H 41.2523 21.4215 38.5962
c 41.4629 21.1109 36.8031
H 42.4004 20.6201 36.8594
c 39.6872 20.8902 35.4894
c 40.4685 20.1526 34.636
c 41.2144 20.9955 33.9296
H 41.9523 20.7274 33.3392
c 40.8798 21.6812 33.6693
H 41.8855 22.4715 33.9148
c 40.7572 20.726 33.1662
c 41.3287 20.2287 33.8562
c 40.8516 19.5275 34.5084
H 40.0219 20.535 34.5983
c 41.3283 18.9552 35.1358
H 40.9242 18.7138 36.4298
c 42.6093 18.4139 34.2607
c 42.8599 19.0499 33.0137
H 43.6475 19.5465 32.7511
c 42.0464 19.7237 32.8238
H 42.0335 20.0281 31.7417
c 41.0582 19.5431 32.8562
H 41.2302 19.3947 31.7734
c 40.2265 19.4948 34.0317
H 39.3172 18.9351 34.3336
c 39.0476 20.8586 35.9048
H 38.6555 20.1931 35.7799
c 38.7332 21.5896 36.5584
H 38.1619 22.5911 36.8612
C 38.4659 21.6075 38.3433
F 37.8572 21.2446 39.3984
F 38.7004 22.4613 38.4117
F 38.4294 21.6071 37.5808
C 46.3019 18.1077 37.8548
H 46.3571 16.9117 38.4419
H 45.5825 18.9985 38.8072
N 47.142 18.1721 37.4209
H 47.5438 17.3334 36.4602
H 47.5599 18.8615 36.5949
H 47.521 18.9197 38.0356
C 45.3635 18.0644 37.0186
H 44.6403 19.1135 36.9936
H 45.7791 17.8656 36.4933
C 44.705 17.5382 36.4607
H 45.8238 16.8618 35.7245
H 43.9626 16.9187 37.5263
C 43.9279 17.9297 35.8301
H 44.2145 18.71 35.5764
H 43.3704 17.7198 36.9386
C 43.6484 17.2067 34.9494
H 44.0733 16.2705 35.5182
H 43.8418 16.7616 34.1048
C 43.1512 17.4531 34.2559
c 43.6656 16.5801 33.1684
c 43.8621 16.8463 32.2343
H 44.9137 16.8735 32.4892
c 43.7057 16.1088 31.8026
H 43.4732 16.5523 30.9051
c 43.9073 14.8072 32.629
c 43.6369 14.1431 32.4426
c 42.5971 13.4604 32.3497
H 42.1791 13.1192 33.4381
c 42.7434 14.4687 31.7178
H 41.9272 14.5259 31.3342
c 43.9845 15.5186 31.9912
c 44.3142 16.4897 31.2612
c 44.5335 17.6911 31.4882
H 45.0651 19.0155 31.0058
c 43.5921 18.0273 31.2068
H 42.9644 18.8461 31.3048
c 43.4906 17.0518 30.2053
c 43.7472 16.3027 29.7289
H 43.6406 15.8872 28.5218
c 44.9492 16.5053 30.1436
H 44.657 17.3969 29.9024
c 44.9595 15.3271 32.6381
H 45.9153 15.4844 32.5842
c 44.797 14.3286 32.0161
H 45.7654 13.4438 31.8883
c 44.0707 14.5931 34.5903
H 43.7073 14.0175 35.2753
c 43.7111 15.6267 34.0592
H 44.587 16.0517 34.7028
C 42.3726 16.3517 34.3321
F 42.2562 16.3388 32.9918
F 41.8841 16.2501 34.8738
F 42.2693 15.4224 34.7388
C 47.0814 17.106 26.479
H 47.422 16.4689 26.9232
H 47.2051 17.1728 25.2564
N 47.5825 17.8354 27.1119
H 47.6798 17.3516 28.2568
H 46.6591 18.7536 27.1819
H 48.2437 18.3406 26.6756
C 46.1168 17.4657 26.938
H 46.1786 17.5733 27.6534
H 45.044 18.2049 26.7164
C 45.6518 16.8884 27.4384
H 44.907 17.5064 27.6861
H 45.0856 16.5704 26.6383
C 45.4688 16.0826 28.1233
H 44.7127 15.1342 27.8632
H 46.4878 16.0161 28.1019
C 44.4607 15.9435 29.3817
H 45.5557 15.9294 29.6532
H 44.542 15.3407 30.0528
C 43.0437 16.2085 29.4693
c 42.5152 15.4718 28.8203
c 41.8858 16.2876 28.3762
H 40.8946 16.8207 28.6389
c 41.8942 15.8929 27.1181
H 42.0891 16.2929 26.3371
c 41.7287 14.9983 26.9616
c 41.1276 14.0133 26.7356
c 40.3772 14.3109 26.814
H 39.8763 14.3472 27.6705
c 40.1292 15.1356 25.7683
H 39.0145 14.9231 24.9232
c 41.2977 13.8605 25.0321
c 42.1563 14.0527 24.8672
c 42.6141 14.5553 23.9972
H 43.1663 15.447 24.1372
c 42.7118 13.6551 23.7873
H 41.7427 13.4088 23.2577
c 42.5565 12.6038 24.2884
c 42.5785 12.682 25.3943
H 42.5864 12.3477 26.4267
c 42.8819 13.5919 25.2603
H 43.5253 13.7844 24.5162
c 41.817 12.48 25.1593
H 41.2175 11.7627 25.7111
c 41.1148 12.9497 25.9204
H 40.3076 12.4769 25.8673
c 42.7332 14.7272 26.7048
H 43.426 14.5336 25.8825
c 42.9208 14.9294 28.1672
H 43.9926 14.9351 27.9308
C 42.4075 16.0812 30.3788
F 42.3704 15.2494 29.5285
F 41.6522 16.9028 30.6049
F 42.7109 15.6877 31.2647
C 40.501 12.2086 21.1676
H 40.9594 13.1203 20.4036
H 40.8913 11.3979 21.7187
N 39.7442 11.9104 20.532
H 39.7379 10.6636 20.5476
H 40.257 12.3897 19.9888
H 38.5843 12.5243 20.5727
C 40.3225 12.1907 22.1867
H 39.3262 12.8389 22.7685
H 41.2042 13.4266 22.173
C 40.1409 11.3701 22.9569
H 40.0897 10.5188 23.486
H 39.4431 11.961 22.9343
C 40.4978 11.1361 23.8957
H 40.0018 10.233 24.4525
H 41.4236 10.6121 24.5626
C 41.3114 11.8421 23.7048
H 41.1784 11.901 22.7942
H 40.5652 12.4657 23.9223
C 42.2027 11.9991 23.9236
c 42.9053 10.9827 23.9762
c 42.8237 9.94663 23.2556
H 42.4786 9.98179 22.2088
c 43.2942 9.08393 23.6713
H 43.7689 8.09197 23.446
c 44.1689 9.69922 23.5521
c 45.3133 9.32775 23.3275
c 45.8011 8.6339 22.4112
H 45.2679 8.52592 21.4902
c 46.6093 8.90264 23.2581
H 47.3691 8.51121 23.3435
c 47.6868 9.4407 23.3984
c 48.5537 9.22431 23.0036
c 49.3668 8.57736 23.3658
H 49.2915 9.00985 24.3437
c 49.6915 9.25317 22.38
H 50.6761 9.0343 21.5312
c 49.456 10.5564 22.7182
c 48.0371 11.3156 22.1297
H 47.3401 12.4229 21.8969
c 48.2189 10.4737 22.2244
H 47.896 10.6972 21.2044
c 47.0653 9.59938 24.485
H 47.9286 10.8414 25.195
c 46.2726 9.09931 24.4933
H 46.2876 8.05083 24.713
c 44.5077 10.4759 24.2487
H 45.2927 10.0506 24.2722
c 43.8028 11.194 24.9649
H 44.1832 12.4358 25.1201
C 42.553 12.3535 22.5713
F 42.6119 11.6721 21.9947
F 43.3765 13.0855 22.9118
F 41.9946 12.9639 21.8467
C 46.9631 14.0872 22.8938
H 46.2587 14.7538 22.9317
H 47.722 14.5341 22.719
N 47.2619 13.7684 21.8595
H 47.0328 13.9798 20.7495
H 45.8909 13.6756 22.0871
H 48.1767 13.4899 21.7668
C 47.24 13.2761 23.4117
H 47.2539 14.0628 23.9326
H 47.0549 12.422 23.3507
C 48.4431 13.2017 24.015
H 48.7736 12.6223 25.1467
H 48.9652 13.7106 23.5047
C 48.837 12.1769 23.5966
H 48.2767 11.1052 24.0134
H 49.6796 12.0147 23.5075
C 49.4376 12.2708 23.035
H 50.1327 12.7293 22.9351
H 49.1049 13.2544 22.6286
C 49.9245 11.1031 22.6156
c 51.0261 11.0322 22.7249
c 51.2514 9.91645 21.8725
H 50.317 9.02313 22.2357
c 52.3197 9.8232 21.7923
H 52.9408 9.23227 21.234
c 52.5017 10.7292 23.2206
c 53.4902 11.3165 22.6286
c 53.9734 11.8096 23.3445
H 54.7047 12.5405 24.0531
c 54.557 10.8699 24.1786
H 53.8784 10.3334 24.7265
c 55.0081 9.95264 23.534
c 55.5829 9.16863 24.1377
c 56.4821 9.16644 25.1047
H 56.5984 10.2132 24.2947
c 56.8829 9.12846 26.2627
H 57.4693 8.47126 26.966
c 55.161 9.44096 25.5357
c 54.8292 9.34879 24.3002
H 54.0988 9.98553 24.0693
c 54.5316 8.21627 24.0759
H 54.1452 7.52665 25.3358
c 54.7782 10.1765 22.4625
H 55.6972 9.54212 21.7258
c 53.9209 10.6824 22.0546
H 53.8853 10.9452 21.296
c 51.6118 10.9991 23.9887
H 51.6947 12.1065 24.25
c 51.2568 10.5899 23.3956
H 50.8198 9.5502 23.1891
C 49.7224 10.5006 21.3496
F 49.6089 9.31078 21.2746
F 50.4707 10.3993 20.083
F 48.9848 11.3382 21.1951
H 36.4549 16.1977 24.8731
H 54.7929 8.52256 26.9199
Cl 17.6207 30.8464 39.6642
Cl 39.614 31.7481 21.8021
Cl 47.8385 26.2529 37.2913
Cl 40.5647 0.705848 11.1539
Cl 37.1663 53.2699 21.0698
Cl 25.4183 19.099 36.6694
Cl 18.0477 31.9974 17.2071
Cl 31.9485 17.5874 11.5968
Cl 38.2939 4.80401 28.3555
Cl 11.9088 25.6996 28.593
C 23.428 14.0342 27.3421
H 23.3806 12.9885 26.8445
H 23.6084 14.6048 26.4296
N 22.9389 14.047 28.1437
H 22.2347 14.8621 27.5863
H 23.4821 13.5008 28.8052
H 22.6634 13.8763 29.4657
C 24.1919 13.5936 28.0351
H 24.3918 14.5626 28.4492
H 24.1952 12.4935 27.8762
C 23.3953 12.6884 28.6871
H 22.6312 13.0335 28.5005
H 23.1155 11.9947 29.1692
C 24.3858 12.2602 28.6232
H 23.9014 12.2421 29.4345
H 24.1481 11.4766 28.2085
C 25.0897 12.7638 27.8602
H 25.0214 14.2818 27.7702
H 25.5973 12.957 26.5368
C 25.293 11.603 27.5579
c 25.694 12.4555 27.3489
c 25.3702 13.7693 27.5437
H 25.2889 13.9338 26.4735
c 25.492 13.2522 28.5156
H 24.7052 13.4879 29.1096
c 26.6976 12.9185 28.198
c 27.1157 13.0115 27.1824
c 28.0719 12.8293 27.0638
H 28.4612 12.54 25.9818
c 28.3506 13.4872 27.5396
H 28.2398 13.5555 28.4282
c 27.3961 14.0634 26.7166
c 28.6429 15.0773 26.0691
c 29.6605 14.9557 26.3284
H 30.3757 15.621 26.813
c 29.9317 14.3543 25.8844
H 29.9713 13.4284 26.2682
c 30.4254 14.9361 24.797
c 29.5424 16.0146 25.0873
H 29.9902 16.9457 24.6318
c 28.5033 16.1044 25.6691
H 28.5408 17.2249 26.24
c 26.3048 14.0664 25.9334
H 25.1314 14.499 25.39
c 27.0776 13.6614 26.0129
H 27.1615 12.7506 25.6109
c 27.0997 11.9672 26.6492
H 27.6627 12.3691 25.2302
c 26.0756 12.1323 26.4847
H 25.7807 13.0148 25.8484
C 26.0457 10.4786 27.369
F 25.8344 10.1159 28.4388
F 26.6995 10.6164 27.6216
F 25.3519 9.95343 26.9814
C 28.9897 10.6712 23.1132
H 27.8709 10.1005 22.3935
H 28.4364 9.96207 23.9997
N 29.9111 9.99684 22.1439
H 31.1155 9.6257 22.1741
H 30.0441 10.8452 20.8684
H 28.9116 9.08649 22.1051
C 29.7484 11.5542 23.1488