LAMMPS output created by EMC v9.4.4, build Aug 20 2021 07:52:44

       14956  atoms
        5257  bonds
        7770  angles
       10808  dihedrals
        3500  impropers

          10  atom types
          10  bond types
          17  angle types
          22  dihedral types
          15  improper types

             0    131.4911098  xlo xhi
             0     33.7255882  ylo yhi
             0     33.7255882  zlo zhi

Masses

       1   12.01115  # C
       2   35.453  # Cl
       3   18.99840  # F
       4   1.00797  # H
       5   14.0067  # N
       6   195.09  # P
       7   1.00797  # WH
       8   15.99940  # WO
       9   12.01115  # c
      10   1.00797  # ch

Atoms

1 1 1 -0.0874 60.9071769412 12.3840570672 33.5602588861 # C
2 1 4 0.1483 60.5718250306 11.6145059217 32.8219673866 # H
3 1 4 0.1483 60.7001952947 13.1718102175 34.6168362799 # H
4 1 5 -0.3888 61.6084949987 12.8647348645 33.6138219341 # N
5 1 4 0.3534 62.1294540583 12.8981401276 33.8937405760 # H
6 1 4 0.3534 61.4934382173 12.5150013888 32.3241420959 # H
7 1 4 0.3534 62.0767159038 13.9592607966 33.9915272124 # H
8 1 1 -0.1925 61.7549225024 11.4537731264 33.6322179436 # C
9 1 4 0.1051 60.8892141676 11.5766673517 34.4800160577 # H
10 1 4 0.1051 63.0628385612 11.5716032849 33.8834883039 # H
11 1 1 -0.1467 62.2575680278 11.2827050150 32.7556757035 # C
12 1 4 0.0967 62.1452876127 10.2349813381 32.2370173758 # H
13 1 4 0.0967 61.5080249951 11.7421655859 32.6242013350 # H
14 1 1 -0.1533 62.2096004299 12.5412045481 31.9508482311 # C
15 1 4 0.1045 61.4426641305 12.9872506800 31.3205435602 # H
16 1 4 0.1045 63.3092870932 12.5993388031 32.2710738404 # H
17 1 1 -0.1507 61.6767009381 13.4121005968 32.2140544669 # C
18 1 4 0.0852 62.2952408895 13.8378490636 32.7607932085 # H
19 1 4 0.0852 60.7587889746 13.5368341466 33.1351890497 # H
20 1 1 -0.1216 61.5769934504 14.1931488287 31.6646186770 # C
21 1 9 -0.0954 62.4072322795 13.6855107228 30.8804624014 # c
22 1 9 -0.1095 62.5936433316 12.9309104933 30.8114882593 # c
23 1 10 0.1397 62.0278935451 12.3919555687 30.6403351627 # ch
24 1 9 -0.1195 63.6397897053 12.0340054152 30.8187637123 # c
25 1 10 0.1426 64.2207510516 11.5012796141 31.2128577440 # ch
26 1 9 0.0019 63.4887791484 13.3964909976 29.8151861648 # c
27 1 9 -0.0496 64.1777144024 13.3526322496 28.8104940854 # c
28 1 9 -0.1176 64.6946355288 11.8525549019 28.6375390544 # c
29 1 10 0.1308 65.2510248936 11.6077906028 28.0485189822 # ch
30 1 9 -0.1240 63.6655087106 12.3518028788 28.0000526803 # c
31 1 10 0.1377 63.0261917525 11.5368815409 28.0159306772 # ch
32 1 9 -0.0048 63.1294548018 13.0975120703 27.2803133729 # c
33 1 9 -0.0433 62.7153635295 12.6383989132 26.5356727113 # c
34 1 9 -0.1180 62.0779138135 12.0966959223 26.0488955620 # c
35 1 10 0.1268 62.0202998149 11.2045961053 26.0607879476 # ch
36 1 9 -0.1299 62.0692178224 12.2753037574 25.2595611286 # c
37 1 10 0.1353 61.3228425301 12.2758380301 24.4341449173 # ch
38 1 9 -0.1163 63.2847385507 12.4764963070 25.3582836477 # c
39 1 9 -0.1285 64.1921110391 11.6678715570 25.5838649167 # c
40 1 10 0.1374 65.0521090046 11.8653166843 25.3723738822 # ch
41 1 9 -0.1121 63.6565604468 12.5152208206 26.2718233581 # c
42 1 10 0.1322 63.6152919489 13.5992811629 26.3008591771 # ch
43 1 9 -0.1215 63.2992196435 14.4047394275 27.2004220921 # c
44 1 10 0.1382 62.4502664220 14.8949611044 27.7625801678 # ch
45 1 9 -0.1137 63.8875486377 14.2158969919 27.9605556907 # c
46 1 10 0.1322 63.8873359034 15.0786987740 28.3524235745 # ch
47 1 9 -0.1258 62.9792534624 14.7443867978 29.8556504404 # c
48 1 10 0.1351 63.2497497151 16.3987378378 30.0895808281 # ch
49 1 9 -0.1173 62.9694827236 14.8704252501 30.7131472271 # c
50 1 10 0.1244 63.1598411986 15.1475833820 31.8107177163 # ch
51 1 1 0.3932 60.5056927659 14.8972247347 31.6716799468 # C
52 1 3 -0.1422 60.6030106774 15.4863142086 31.1334285456 # F
53 1 3 -0.1422 59.5645330882 15.5448965716 32.1011540979 # F
54 1 3 -0.1422 59.9278955213 14.5075781619 32.1999033511 # F
55 1 1 -0.0874 62.0503432935 17.0298691567 24.5602435085 # C
56 1 4 0.1483 61.8542057147 17.8795850952 23.9106312021 # H
57 1 4 0.1483 62.0192250053 16.6889712220 25.5465027466 # H
58 1 5 -0.3888 61.3882107876 16.6153082271 23.9252586315 # N
59 1 4 0.3534 61.9736571392 15.5201382200 24.1235171517 # H
60 1 4 0.3534 61.0664564636 17.0427129843 22.4407311345 # H
61 1 4 0.3534 60.5500626914 16.1715649757 23.9960314815 # H
62 1 1 -0.1925 63.2284563618 16.5354894674 24.4946832179 # C
63 1 4 0.1051 63.9590452205 16.9346557400 23.2159931541 # H
64 1 4 0.1051 64.4209371107 16.4820778686 24.7286743412 # H
65 1 1 -0.1467 63.2317829903 15.5974361908 25.3140822547 # C
66 1 4 0.0967 63.5412020527 15.1661519874 24.3346809699 # H
67 1 4 0.0967 62.4596280106 15.7320398048 25.9955936039 # H
68 1 1 -0.1533 63.5815915960 15.0697069322 25.9869102439 # C
69 1 4 0.1045 64.5187837036 15.5419992737 26.8202887616 # H
70 1 4 0.1045 62.8999397261 14.2260876562 25.8892522150 # H
71 1 1 -0.1507 64.0407168524 14.2747285733 25.3142013059 # C
72 1 4 0.0852 65.3050584787 14.5285174121 25.1584990227 # H
73 1 4 0.0852 63.1587526054 14.3284024679 25.1232245725 # H
74 1 1 -0.1216 64.2313384572 13.2743273257 25.7227894662 # C
75 1 9 -0.0954 64.3532894136 13.2097636678 26.6886015503 # c
76 1 9 -0.1095 64.2162420970 11.7867466540 27.0514957033 # c
77 1 10 0.1397 63.4079370047 11.2319228079 27.3130743055 # ch
78 1 9 -0.1195 64.6256765702 10.7984853372 27.3682679262 # c
79 1 10 0.1426 64.8520989649 9.9083911292 28.1949721728 # ch
80 1 9 0.0019 65.4111022264 11.9472973062 27.4272669112 # c
81 1 9 -0.0496 66.4417307118 11.7007355970 26.8339645873 # c
82 1 9 -0.1176 67.0396510795 12.4522844916 26.4199360811 # c
83 1 10 0.1308 67.9413962979 12.8532832814 25.6789735837 # ch
84 1 9 -0.1240 67.4281027764 13.6772837795 26.7402567207 # c
85 1 10 0.1377 67.3955596830 14.5242148094 27.6826627180 # ch
86 1 9 -0.0048 67.0483232795 11.7554944069 26.3450123831 # c
87 1 9 -0.0433 67.2595849342 12.2067417654 27.3821911202 # c
88 1 9 -0.1180 66.9259659168 12.2388016246 28.4900339878 # c
89 1 10 0.1268 66.0199412957 12.6258814133 28.8428079601 # ch
90 1 9 -0.1299 67.4051552499 11.3501456804 29.0307200872 # c
91 1 10 0.1353 67.1321019450 11.0979725205 29.9480563567 # ch
92 1 9 -0.1163 67.9641544961 11.5474107554 27.7580919391 # c
93 1 9 -0.1285 68.8716549859 12.3221621804 26.9474007984 # c
94 1 10 0.1374 69.4477166738 11.9789995616 26.2124986109 # ch
95 1 9 -0.1121 67.9452649222 12.8066009504 27.2015889002 # c
96 1 10 0.1322 68.5166293514 13.3052762560 27.8635178645 # ch
97 1 9 -0.1215 65.7421037176 9.7081572801 26.2197853631 # c
98 1 10 0.1382 65.1230449852 9.0557096961 25.4935004392 # ch
99 1 9 -0.1137 65.7393995765 10.7522006564 26.3396620579 # c
100 1 10 0.1322 64.8387291160 10.8296210866 26.4640814989 # ch
101 1 9 -0.1258 65.6480493354 13.0573540816 27.9183934992 # c
102 1 10 0.1351 65.3687056074 14.2099836971 28.2206816226 # ch
103 1 9 -0.1173 64.9342799084 14.2511510330 26.9927966214 # c
104 1 10 0.1244 64.6431895120 14.7263465375 28.0136140066 # ch
105 1 1 0.3932 65.1214320110 13.2874690052 25.2133061193 # C
106 1 3 -0.1422 65.9651371276 14.1045029376 24.4247860274 # F
107 1 3 -0.1422 65.9245981891 12.9834658052 26.0904004741 # F
108 1 3 -0.1422 64.7801230390 12.5077352910 24.3512086127 # F
109 1 1 -0.0874 67.3354365939 15.0723138279 23.2804878927 # C
110 1 4 0.1483 68.2823960048 15.2623602132 23.9148035817 # H
111 1 4 0.1483 67.0888828732 16.0260979384 23.7805398884 # H
112 1 5 -0.3888 67.4968796518 15.1988471473 22.2132768917 # N
113 1 4 0.3534 68.3855388690 14.5247111635 22.4118882036 # H
114 1 4 0.3534 66.6614394417 15.2459635298 21.3523112579 # H
115 1 4 0.3534 67.6647882667 15.4916278543 21.2998510776 # H
116 1 1 -0.1925 66.8610861194 14.0300580633 23.8496947298 # C
117 1 4 0.1051 67.6650938566 14.2442863132 22.9414488340 # H
118 1 4 0.1051 66.0943730113 13.2749523363 23.2473214726 # H
119 1 1 -0.1467 66.6304197812 13.7360170648 25.2494337469 # C
120 1 4 0.0967 66.8598958249 14.7043131100 25.9726319212 # H
121 1 4 0.0967 66.7173975507 13.9897128620 25.7855361871 # H
122 1 1 -0.1533 67.5382060022 12.3383425783 25.3678157164 # C
123 1 4 0.1045 68.6335393743 12.3005140070 25.7071897647 # H
124 1 4 0.1045 67.4808451891 12.1796076242 24.2366889120 # H
125 1 1 -0.1507 66.8623147836 11.4477903997 25.9925400692 # C
126 1 4 0.0852 67.5313330866 11.5477427316 26.7027428251 # H
127 1 4 0.0852 66.2363730549 10.6615717348 25.1139885094 # H
128 1 1 -0.1216 67.5612745562 10.6531949002 27.0847728795 # C
129 1 9 -0.0954 66.9617117515 10.0292077116 28.1791382579 # c
130 1 9 -0.1095 66.0852163963 10.3270465122 29.3659015207 # c
131 1 10 0.1397 65.2151671301 10.7465950992 28.8186532820 # ch
132 1 9 -0.1195 65.6783023900 9.9596622764 30.0166615865 # c
133 1 10 0.1426 65.0270066081 9.7659019496 30.8964072484 # ch
134 1 9 0.0019 66.7253924411 8.9037322180 30.0297386244 # c
135 1 9 -0.0496 66.6945875427 8.5209018039 30.9106776560 # c
136 1 9 -0.1176 65.6850378028 8.0428212621 30.8817428166 # c
137 1 10 0.1308 65.2247449181 8.4184938693 30.0451299662 # ch
138 1 9 -0.1240 65.4086425955 7.2699919969 31.4015477081 # c
139 1 10 0.1377 64.3470749132 7.6741139468 31.3709873674 # ch
140 1 9 -0.0048 65.9172249182 7.3291466208 32.5317627102 # c
141 1 9 -0.0433 65.2336048768 7.4574532346 33.5381829887 # c
142 1 9 -0.1180 65.0212484812 7.1372697842 34.6302027320 # c
143 1 10 0.1268 65.4767826969 7.3956634443 35.5850947710 # ch
144 1 9 -0.1299 65.1354547442 6.1660393687 34.2627479632 # c
145 1 10 0.1353 64.4536796346 6.1611465535 35.4557274668 # ch
146 1 9 -0.1163 65.2678658786 5.5562293253 33.2057673165 # c
147 1 9 -0.1285 65.5528284521 6.2676557084 32.1269008049 # c
148 1 10 0.1374 66.7550685713 6.8506136040 31.4146938201 # ch
149 1 9 -0.1121 64.8113007985 7.1806067458 32.7811991827 # c
150 1 10 0.1322 64.4585650451 8.1798357395 32.6739375861 # ch
151 1 9 -0.1215 66.7989057914 8.4014170987 32.4238784413 # c
152 1 10 0.1382 66.8024766317 9.6241499560 33.4720421441 # ch
153 1 9 -0.1137 67.3460260203 7.7725553735 31.7814357584 # c
154 1 10 0.1322 68.0536027473 7.5237384730 31.2828013470 # ch
155 1 9 -0.1258 67.3677078307 8.3851508256 29.2843014738 # c
156 1 10 0.1351 66.7482295664 7.6673645804 29.4572738374 # ch
157 1 9 -0.1173 67.2836023155 9.2676782037 28.8784868572 # c
158 1 10 0.1244 66.7536327802 9.7069957080 29.4756852876 # ch
159 1 1 0.3932 68.1420307619 10.2556104967 26.6759374810 # C
160 1 3 -0.1422 68.9003961126 9.2481530132 26.8214131259 # F
161 1 3 -0.1422 68.7627111927 11.2755118996 26.1621976891 # F
162 1 3 -0.1422 67.4651570039 9.4206217391 26.3707938171 # F
163 1 1 -0.0874 62.7057488474 2.2876139921 35.4385772230 # C
164 1 4 0.1483 62.7736044093 1.2711284719 35.5924857515 # H
165 1 4 0.1483 62.3472436207 2.9629263943 35.4017578764 # H
166 1 5 -0.3888 62.6198841143 2.0544523665 34.1491439556 # N
167 1 4 0.3534 61.3490259344 1.9194525256 33.7388235165 # H
168 1 4 0.3534 62.5645442050 2.7816623827 33.8722217786 # H
169 1 4 0.3534 63.5824932469 1.9567237992 33.8483726488 # H
170 1 1 -0.1925 63.6163152586 2.7507634294 35.3747684274 # C
171 1 4 0.1051 63.3426110112 3.3464138939 34.7379123289 # H
172 1 4 0.1051 63.4203471218 3.0480400134 36.4192817872 # H
173 1 1 -0.1467 64.8017483790 2.3981012502 34.9832729372 # C
174 1 4 0.0967 65.2840623451 1.6235514565 34.7745059037 # H
175 1 4 0.0967 65.2410581841 2.0753942740 35.8271958117 # H
176 1 1 -0.1533 65.1240708225 2.8967785988 34.2674895860 # C
177 1 4 0.1045 66.3685783978 3.3177489257 34.7861346306 # H
178 1 4 0.1045 65.2910736986 1.7790776260 34.2278142844 # H
179 1 1 -0.1507 64.4134430783 3.6593873071 33.8860150353 # C
180 1 4 0.0852 63.4772678850 3.3383033657 33.6827465594 # H
181 1 4 0.0852 63.8422290329 4.0711732859 34.9179266617 # H
182 1 1 -0.1216 65.3803159755 4.7381014840 33.3656775952 # C
183 1 9 -0.0954 65.5027137801 4.4644617542 32.4824211103 # c
184 1 9 -0.1095 66.3518919660 4.6719816565 31.8541583715 # c
185 1 10 0.1397 67.4782704631 4.5242759367 31.1268530258 # ch
186 1 9 -0.1195 66.5469260815 5.1741535576 32.2889512428 # c
187 1 10 0.1426 66.7657678737 5.7202796862 31.8214844214 # ch
188 1 9 0.0019 65.3355734624 3.8939281480 33.0996530316 # c
189 1 9 -0.0496 65.9342591915 3.2896138114 33.3698195426 # c
190 1 9 -0.1176 66.8615866010 3.2192679304 32.8024965804 # c
191 1 10 0.1308 67.2537991757 4.1653108926 33.3446992265 # ch
192 1 9 -0.1240 66.5728323746 2.5128888649 31.8649680193 # c
193 1 10 0.1377 67.6989313230 2.7610398008 31.1443134028 # ch
194 1 9 -0.0048 66.0400314827 1.7764865027 32.0815750266 # c
195 1 9 -0.0433 66.4748489287 0.7232369711 31.8081781380 # c
196 1 9 -0.1180 67.6606707849 0.8563182416 31.1109013009 # c
197 1 10 0.1268 68.0664309950 0.5438514795 31.8603581422 # ch
198 1 9 -0.1299 67.1647062955 1.7091744076 30.5325264754 # c
199 1 10 0.1353 67.4200132133 2.2961273581 29.8385009951 # ch
200 1 9 -0.1163 66.0451682510 1.7538358864 30.4220283019 # c
201 1 9 -0.1285 65.3120286733 0.8752348004 30.5799580516 # c
202 1 10 0.1374 64.3800609668 0.6820715455 30.4366350510 # ch
203 1 9 -0.1121 66.0221408016 -0.1446142080 31.1409666474 # c
204 1 10 0.1322 66.5835207852 -0.7623521380 30.6754111619 # ch
205 1 9 -0.1215 65.1199820989 1.8761594130 32.6276933249 # c
206 1 10 0.1382 64.1065809011 2.0023291427 32.4266910386 # ch
207 1 9 -0.1137 65.4455358743 2.3316739433 33.4604235438 # c
208 1 10 0.1322 66.0932201883 1.4556055151 33.7796588171 # ch
209 1 9 -0.1258 64.2595793891 3.7518279958 32.3012474008 # c
210 1 10 0.1351 63.4061078252 4.0561726983 32.8264728063 # ch
211 1 9 -0.1173 64.6845350421 4.0169974624 31.5345205082 # c
212 1 10 0.1244 63.7350104757 4.5459575932 30.9957424313 # ch
213 1 1 0.3932 66.2331454949 4.7623751657 34.2466698576 # C
214 1 3 -0.1422 67.3195389922 4.7601065874 34.3618855520 # F
215 1 3 -0.1422 65.3220505091 5.2680764137 34.7571226640 # F
216 1 3 -0.1422 66.3704296044 4.0391253200 35.1860290233 # F
217 1 1 -0.0874 63.7527196413 5.8380258339 30.5650711751 # C
218 1 4 0.1483 63.3072845146 6.5734570870 31.5350409106 # H
219 1 4 0.1483 63.2989827223 6.4296933303 29.4113097258 # H
220 1 5 -0.3888 62.5546472547 4.8868913609 30.8762451035 # N
221 1 4 0.3534 62.3673389673 4.9694460510 32.3310106342 # H
222 1 4 0.3534 61.6634546370 4.8447944892 30.5710615998 # H
223 1 4 0.3534 62.1746288556 3.8679051138 30.0829614182 # H
224 1 1 -0.1925 64.7940577003 5.6047818976 30.9043469672 # C
225 1 4 0.1051 65.6271083047 6.1217898529 31.0214884834 # H
226 1 4 0.1051 64.9951821563 5.2708374034 31.4957214180 # H
227 1 1 -0.1467 64.7927412586 5.1671220362 30.1899021931 # C
228 1 4 0.0967 64.3621052705 5.2178252620 29.3484601246 # H
229 1 4 0.0967 65.5075357967 5.8072671608 30.0303541182 # H
230 1 1 -0.1533 65.1404767050 4.3459617435 30.5171807021 # C
231 1 4 0.1045 66.0887438343 4.4001295324 30.7715775805 # H
232 1 4 0.1045 64.4627133941 4.0153675013 30.6806346953 # H
233 1 1 -0.1507 65.0676184514 2.9593989327 30.2122518517 # C
234 1 4 0.0852 65.6916664301 2.8234158618 29.6327474215 # H
235 1 4 0.0852 63.8481514114 3.2226914007 30.3379712610 # H
236 1 1 -0.1216 65.7159115851 2.4497750396 30.7941268518 # C
237 1 9 -0.0954 66.5417896869 2.2059258024 31.1156692251 # c
238 1 9 -0.1095 67.1333110416 3.0640022489 31.6492589969 # c
239 1 10 0.1397 68.1861841664 2.4376290205 31.6910097424 # ch
240 1 9 -0.1195 67.4513318199 2.8116606676 32.5503278373 # c
241 1 10 0.1426 68.3771035474 3.3123789939 33.1806630918 # ch
242 1 9 0.0019 68.4406265526 1.6524615553 31.9595820281 # c
243 1 9 -0.0496 69.3170179795 1.3455883593 32.5370832501 # c
244 1 9 -0.1176 69.4645597609 1.3194987076 33.3484256302 # c
245 1 10 0.1308 69.5556870581 0.3452550112 33.4583239066 # ch
246 1 9 -0.1240 70.5210886695 1.7612421270 32.4246797857 # c
247 1 10 0.1377 70.9285532928 2.4012577558 32.0470692940 # ch
248 1 9 -0.0048 70.7226062337 0.9182597808 31.8553105352 # c
249 1 9 -0.0433 71.2951084288 0.6046562171 33.0567354977 # c
250 1 9 -0.1180 70.1588424085 0.9726180345 33.7559652858 # c
251 1 10 0.1268 69.4050853871 1.7359810983 33.9532217205 # ch
252 1 9 -0.1299 69.7331456026 0.1635607733 34.4466416265 # c
253 1 10 0.1353 69.3132043312 -0.8641965650 34.1770629200 # ch
254 1 9 -0.1163 71.0737820213 1.1960572943 34.3684086556 # c
255 1 9 -0.1285 72.5217743637 1.6946389752 33.9661218490 # c
256 1 10 0.1374 72.8650861125 2.1789889639 34.2848263490 # ch
257 1 9 -0.1121 72.0397197516 1.7235818359 33.0651618448 # c
258 1 10 0.1322 71.6645961389 2.1160335440 31.9954981741 # ch
259 1 9 -0.1215 70.1619228450 -0.0683659450 31.3483650324 # c
260 1 10 0.1382 69.9196585457 -0.9601659790 30.7361068601 # ch
261 1 9 -0.1137 69.7910764006 0.9284492945 31.7621467064 # c
262 1 10 0.1322 69.8220390610 1.6455894434 31.1771574126 # ch
263 1 9 -0.1258 68.6415823144 1.0399047268 31.5182818994 # c
264 1 10 0.1351 69.2801639928 -0.2785834903 31.5021006928 # ch
265 1 9 -0.1173 67.3192231802 1.2690784677 30.8313239250 # c
266 1 10 0.1244 66.9028917820 0.6195042632 30.3522998225 # ch
267 1 1 0.3932 66.0751939707 3.4075434220 30.8122773484 # C
268 1 3 -0.1422 64.8894989618 3.4791442832 30.5993521712 # F
269 1 3 -0.1422 66.8304696705 3.1226995721 29.4502859760 # F
270 1 3 -0.1422 66.8007298426 3.9213476588 31.6662657392 # F
271 1 1 -0.0874 71.5681646053 5.0125788729 30.4471744539 # C
272 1 4 0.1483 71.1911889057 5.2170469539 29.7464500824 # H
273 1 4 0.1483 71.7173016001 3.8332978274 30.2395181741 # H
274 1 5 -0.3888 71.2459633695 6.1155566250 30.2828761702 # N
275 1 4 0.3534 70.4841960770 6.3647555974 29.5996985753 # H
276 1 4 0.3534 72.3739109162 6.2254348468 30.0741143935 # H
277 1 4 0.3534 70.3457440666 6.5680818143 31.4189841628 # H
278 1 1 -0.1925 71.8797796712 4.8310557763 31.5552724975 # C
279 1 4 0.1051 72.6631980025 4.0717867409 32.1239373208 # H
280 1 4 0.1051 71.5404242770 3.9819105884 31.4726135017 # H
281 1 1 -0.1467 71.6849083065 4.7965960071 32.4368278870 # C
282 1 4 0.0967 72.3665942545 4.7547105326 33.4272249454 # H
283 1 4 0.0967 71.4198358225 5.8376286821 32.6024135963 # H
284 1 1 -0.1533 70.6872137473 4.0916715347 32.8699930982 # C
285 1 4 0.1045 69.3950435549 4.5764052245 32.9095843109 # H
286 1 4 0.1045 71.4309856927 5.0345647414 33.4573748268 # H
287 1 1 -0.1507 70.0080789313 3.1442656661 33.0784444890 # C
288 1 4 0.0852 69.1634059842 2.6519071075 33.3679804193 # H
289 1 4 0.0852 70.2352885136 2.6874566095 32.1374852708 # H
290 1 1 -0.1216 70.6439169221 2.6271185254 34.4750352008 # C
291 1 9 -0.0954 71.5868498971 3.0442697196 34.6491473955 # c
292 1 9 -0.1095 72.6618569466 3.3973452527 34.5173280675 # c
293 1 10 0.1397 73.2933750786 3.9100573499 33.7670462653 # ch
294 1 9 -0.1195 72.9493561261 3.9914889309 35.4927475123 # c
295 1 10 0.1426 72.8412216224 4.0256851772 36.5672973527 # ch
296 1 9 0.0019 71.9581727402 4.2457807904 35.1245405414 # c
297 1 9 -0.0496 71.7769487743 3.4638816129 35.1318877952 # c
298 1 9 -0.1176 71.8738206375 2.6758128521 33.9415431435 # c
299 1 10 0.1308 71.0391589130 2.8330061338 33.0629565741 # ch
300 1 9 -0.1240 72.5452752101 1.9728411798 33.5024164593 # c
301 1 10 0.1377 73.5915412493 1.7859231831 33.2363035641 # ch
302 1 9 -0.0048 71.6248193261 2.0962400290 34.6788279761 # c
303 1 9 -0.0433 72.2919428199 1.9648231601 34.8499497804 # c
304 1 9 -0.1180 72.4629880184 0.6868851199 34.6377891128 # c
305 1 10 0.1268 73.6063231210 0.4853859484 34.2557933761 # ch
306 1 9 -0.1299 72.2038426457 0.5547618947 35.5147943030 # c
307 1 10 0.1353 71.4463144402 -0.6664033900 35.5875019604 # ch
308 1 9 -0.1163 73.3405040787 0.9269278444 36.2685368842 # c
309 1 9 -0.1285 73.3741183647 1.6321106531 36.5561318640 # c
310 1 10 0.1374 73.8609908820 2.0271708631 37.3765152751 # ch
311 1 9 -0.1121 73.1267211786 2.4722280073 36.2448314772 # c
312 1 10 0.1322 72.7278285048 2.4042079962 36.9965478731 # ch
313 1 9 -0.1215 70.4993413559 3.0362106168 36.2975532237 # c
314 1 10 0.1382 69.9369273889 3.7410604595 36.4699591221 # ch
315 1 9 -0.1137 71.2918409127 3.3444394527 36.3040706480 # c
316 1 10 0.1322 71.3060533417 3.9723882717 37.2407066219 # ch
317 1 9 -0.1258 70.6329887582 4.7242397078 34.6344600529 # c
318 1 10 0.1351 69.1402917506 4.6009870501 34.3645792535 # ch
319 1 9 -0.1173 70.9534638347 4.1156287517 34.2124159028 # c
320 1 10 0.1244 70.2020726142 3.5236195173 33.9888314643 # ch
321 1 1 0.3932 69.2256831763 3.0019784908 34.7798198153 # C
322 1 3 -0.1422 68.8104271380 3.0852132798 33.7322927017 # F
323 1 3 -0.1422 68.6109174851 2.7123615542 35.1664830975 # F
324 1 3 -0.1422 68.8434016271 3.8351704158 35.7968358066 # F
325 1 1 -0.0874 76.9554995612 0.5575785524 37.9811482384 # C
326 1 4 0.1483 76.1147250161 0.6207468084 37.4354603596 # H
327 1 4 0.1483 77.4904731153 1.1066844566 37.4242505379 # H
328 1 5 -0.3888 76.9323125273 0.9355531216 38.8136652957 # N
329 1 4 0.3534 76.9473738020 -0.1391308782 39.4784263429 # H
330 1 4 0.3534 75.9348389301 1.5854048421 38.5008080275 # H
331 1 4 0.3534 77.3561891715 2.2607314377 38.3207722428 # H
332 1 1 -0.1925 77.1013429005 -0.5477984563 38.3535222536 # C
333 1 4 0.1051 77.4934775455 -0.5917155500 39.3595903381 # H
334 1 4 0.1051 77.9604909453 -0.4969413629 37.4440118212 # H
335 1 1 -0.1467 75.9989386768 -1.2427448993 38.6818967688 # C
336 1 4 0.0967 75.9391463625 -1.0719313502 39.6458548066 # H
337 1 4 0.0967 75.8752339342 -2.4254432459 38.5327426872 # H
338 1 1 -0.1533 74.9679432817 -1.0238248629 37.7910312014 # C
339 1 4 0.1045 75.7741738275 -1.0547244041 37.0587700131 # H
340 1 4 0.1045 74.1543625386 -1.9127183113 37.8337735723 # H
341 1 1 -0.1507 73.9564482325 -0.0248167578 37.3465533359 # C
342 1 4 0.0852 73.6448409388 -1.4796699414 38.0598275789 # H
343 1 4 0.0852 73.2628452448 0.7409477007 37.9909285449 # H
344 1 1 -0.1216 73.6220484580 0.1616182781 36.3525529242 # C
345 1 9 -0.0954 72.6028944125 -0.1871965794 36.1050427749 # c
346 1 9 -0.1095 73.0127550098 -0.9049400357 36.7434901678 # c
347 1 10 0.1397 72.8101698764 -1.4256272465 37.3874653123 # ch
348 1 9 -0.1195 73.8555632659 -0.9350041544 36.6310025667 # c
349 1 10 0.1426 74.6833671598 -1.6281286542 37.1870141576 # ch
350 1 9 0.0019 73.2653177441 0.9022154326 35.4895083277 # c
351 1 9 -0.0496 74.2635117236 1.4919312439 35.5664690161 # c
352 1 9 -0.1176 75.1142747029 1.9161980630 34.7908002718 # c
353 1 10 0.1308 74.8583761586 1.3818360785 34.1135644150 # ch
354 1 9 -0.1240 76.0198475849 2.4266379343 34.7264660416 # c
355 1 10 0.1377 76.5581387553 1.5002006628 34.2127982969 # ch
356 1 9 -0.0048 75.9972555671 2.9248370525 35.5191948348 # c
357 1 9 -0.0433 76.8568371354 3.6505393080 35.8452951719 # c
358 1 9 -0.1180 77.5103568875 3.8558313547 36.7518037559 # c
359 1 10 0.1268 77.3604542281 3.7254463885 37.9368007517 # ch
360 1 9 -0.1299 77.6136571696 4.7880728783 37.1035456404 # c
361 1 10 0.1353 78.8088456537 5.2156436755 37.3972797963 # ch
362 1 9 -0.1163 76.8052461427 5.3319719403 36.4857237378 # c
363 1 9 -0.1285 76.7511506918 5.5461706407 35.1016492571 # c
364 1 10 0.1374 76.2370543936 5.8209692432 34.5014283039 # ch
365 1 9 -0.1121 76.4862977543 4.6214300300 35.1456112539 # c
366 1 10 0.1322 75.6362304819 4.8700907257 35.5042296958 # ch
367 1 9 -0.1215 75.2538560845 2.5112302863 36.4590105821 # c
368 1 10 0.1382 75.5034670991 2.3692248491 37.3758035859 # ch
369 1 9 -0.1137 74.2881663487 2.4838362662 35.8416735219 # c
370 1 10 0.1322 73.7613853012 2.7594041860 34.8120262224 # ch
371 1 9 -0.1258 71.4378428624 1.2899927567 35.4576570232 # c
372 1 10 0.1351 70.5991903151 2.3742789301 35.6508083215 # ch
373 1 9 -0.1173 71.4533633276 0.6037487210 35.8078216968 # c
374 1 10 0.1244 70.7993280037 -0.4088681258 36.2653728686 # ch
375 1 1 0.3932 74.3514039083 -0.2277648478 35.7913700633 # C
376 1 3 -0.1422 75.7241326529 0.0239398716 36.2549106232 # F
377 1 3 -0.1422 75.0375551815 -0.8334237339 34.9376364964 # F
378 1 3 -0.1422 74.1732177715 0.6732941168 34.8417512286 # F
379 1 1 -0.0874 75.1272274665 1.2472077179 38.7096501585 # C
380 1 4 0.1483 74.7978611932 0.1382100068 38.4787842785 # H
381 1 4 0.1483 74.2440370731 1.4324981911 39.6321422257 # H
382 1 5 -0.3888 76.1163023364 1.1202267726 39.2727043272 # N
383 1 4 0.3534 77.1340061648 1.2631529405 39.2856784232 # H
384 1 4 0.3534 75.8187875251 2.0190186154 39.7753639140 # H
385 1 4 0.3534 75.9332825776 0.3675127465 39.4477496906 # H
386 1 1 -0.1925 74.6704977502 1.4683869094 38.1275608465 # C
387 1 4 0.1051 75.3202535301 1.3133892742 37.4372830256 # H
388 1 4 0.1051 73.7154921789 1.2311588531 38.6820357928 # H
389 1 1 -0.1467 74.2875273613 2.8956952414 38.5236674635 # C
390 1 4 0.0967 73.3898451703 3.2099265622 37.7028570842 # H
391 1 4 0.0967 73.0788756034 2.5383899788 39.2986857173 # H
392 1 1 -0.1533 75.1207784628 3.4172037987 38.6167353746 # C
393 1 4 0.1045 75.3621374766 3.7854998310 39.4788378395 # H
394 1 4 0.1045 75.8659583059 2.5947025039 38.9778810190 # H
395 1 1 -0.1507 75.7766435156 3.4398054015 37.7141789600 # C
396 1 4 0.0852 76.5008892439 2.5100362785 37.9234497312 # H
397 1 4 0.0852 75.0732476504 4.5366234693 37.9657335872 # H
398 1 1 -0.1216 76.5416599591 4.3466857920 37.3477999668 # C
399 1 9 -0.0954 76.7938947747 3.6042319165 36.5416778098 # c
400 1 9 -0.1095 77.3592355340 2.9619946735 36.9374519436 # c
401 1 10 0.1397 76.8908838670 1.8032363644 37.3050039979 # ch
402 1 9 -0.1195 78.5100016463 3.2838713051 36.0645981983 # c
403 1 10 0.1426 79.6203008258 4.0506048353 36.1920728979 # ch
404 1 9 0.0019 77.7373604436 2.7024346264 35.4528518543 # c
405 1 9 -0.0496 77.9166602754 2.3134511789 34.5234251944 # c
406 1 9 -0.1176 77.2569539391 2.2597846307 33.7441324807 # c
407 1 10 0.1308 76.7997151778 3.1213017022 34.4110333839 # ch
408 1 9 -0.1240 77.0329204328 1.6413638555 33.0670876024 # c
409 1 10 0.1377 76.1977601958 1.2545594748 33.3664367801 # ch
410 1 9 -0.0048 77.6498744653 2.2147093656 32.2411517587 # c
411 1 9 -0.0433 77.0824028262 3.0068193233 31.2450741421 # c
412 1 9 -0.1180 75.7183450799 3.0053748449 30.5489456353 # c
413 1 10 0.1268 74.5124716344 3.2561891048 30.8783475868 # ch
414 1 9 -0.1299 76.5595193449 3.1484045671 29.6635587109 # c
415 1 10 0.1353 76.9379957313 1.6384129945 29.2999174270 # ch
416 1 9 -0.1163 77.6208880757 3.6888926662 29.4391546098 # c
417 1 9 -0.1285 78.0804742588 3.9210980751 30.2810477577 # c
418 1 10 0.1374 78.6631442571 3.4093842809 30.5816693246 # ch
419 1 9 -0.1121 77.8454848624 3.6277567195 31.2225670097 # c
420 1 10 0.1322 77.8314753487 4.0633662855 32.3631879187 # ch
421 1 9 -0.1215 78.5121555744 1.5396748947 32.5464660200 # c
422 1 10 0.1382 79.5103422632 1.7907137753 32.2238709453 # ch
423 1 9 -0.1137 78.3013458600 1.5874592411 33.6342928831 # c
424 1 10 0.1322 77.8046900902 1.1212143997 34.5318904024 # ch
425 1 9 -0.1258 76.5605928842 2.3306833080 35.6091120550 # c
426 1 10 0.1351 76.0660252108 1.4785603311 34.9880647967 # ch
427 1 9 -0.1173 76.0631666518 3.2210659119 36.1746350049 # c
428 1 10 0.1244 75.2711691386 2.7704252063 36.7434934638 # ch
429 1 1 0.3932 76.2470804156 5.5760505185 38.0371805074 # C
430 1 3 -0.1422 76.3091260765 5.1016594918 38.6381283424 # F
431 1 3 -0.1422 76.9267100357 6.8669087514 37.8718426768 # F
432 1 3 -0.1422 75.3061613292 6.2398911275 38.4110895809 # F
433 1 1 -0.0874 74.3733526635 1.6285770623 28.3910454194 # C
434 1 4 0.1483 75.0418068939 0.8011439923 28.5713048785 # H
435 1 4 0.1483 73.9695294403 1.6188908147 29.8543186770 # H
436 1 5 -0.3888 73.9691094223 1.5734319202 27.4619383641 # N
437 1 4 0.3534 73.9914700774 2.3743065912 28.0273582056 # H
438 1 4 0.3534 72.5867439231 1.1503811798 27.5823667390 # H
439 1 4 0.3534 74.5193743758 1.0244890719 26.4012368390 # H
440 1 1 -0.1925 75.5576905028 1.9489314919 27.9524568561 # C
441 1 4 0.1051 75.7523583286 1.5966115558 27.0076191857 # H
442 1 4 0.1051 75.5405511828 3.0837068241 27.9642514540 # H
443 1 1 -0.1467 76.9547898043 1.8319330607 28.3627145325 # C
444 1 4 0.0967 77.7665968856 1.1236020355 28.9880865605 # H
445 1 4 0.0967 75.9946470701 1.1135188377 28.9836847010 # H
446 1 1 -0.1533 77.6334219993 2.5847926507 27.6055720937 # C
447 1 4 0.1045 78.6189337590 2.1355812040 28.1624144639 # H
448 1 4 0.1045 77.8686225398 2.4048851060 26.6783898587 # H
449 1 1 -0.1507 77.1818928156 3.5612512597 27.7612599002 # C
450 1 4 0.0852 76.4245344459 4.3331126824 27.5640580425 # H
451 1 4 0.0852 76.8913538221 2.8863622214 26.9033306101 # H
452 1 1 -0.1216 77.7665987929 3.8812090324 28.4401153430 # C
453 1 9 -0.0954 78.3474500545 4.5937540821 27.9226640146 # c
454 1 9 -0.1095 78.6436858720 5.6344395542 27.5836733543 # c
455 1 10 0.1397 77.7488026094 6.8143305781 27.7945398396 # ch
456 1 9 -0.1195 79.4983048071 5.1430178226 27.4035502910 # c
457 1 10 0.1426 79.5431714793 5.9202242796 27.4762990453 # ch
458 1 9 0.0019 79.7693170076 3.6342438325 27.3425902044 # c
459 1 9 -0.0496 80.3324497025 3.2160419184 27.8179304906 # c
460 1 9 -0.1176 80.4610125956 1.7550433005 27.7609476968 # c
461 1 10 0.1308 80.3153035401 0.6295905328 27.8355775754 # ch
462 1 9 -0.1240 81.1356342162 1.5714460008 26.9323015777 # c
463 1 10 0.1377 82.2526534851 1.8400278346 27.3283513939 # ch
464 1 9 -0.0048 80.7821522865 2.9861651739 26.2902943885 # c
465 1 9 -0.0433 79.9359627663 2.7895455718 26.4309570022 # c
466 1 9 -0.1180 78.9361682433 3.6601615084 25.6447567904 # c
467 1 10 0.1268 79.1271553426 3.6825617692 24.4933826208 # ch
468 1 9 -0.1299 78.4766307857 4.0874940873 26.5396371741 # c
469 1 10 0.1353 77.1274408112 3.8271857846 26.5861907434 # ch
470 1 9 -0.1163 78.7373461884 3.8207991854 27.6363437719 # c
471 1 9 -0.1285 79.2035859105 2.9551566119 27.8966116843 # c
472 1 10 0.1374 79.8544912646 3.1588993523 28.9689060359 # ch
473 1 9 -0.1121 79.6182468803 2.7719230341 27.3448485387 # c
474 1 10 0.1322 79.2183306172 1.6328875728 27.1606100384 # ch
475 1 9 -0.1215 81.1332013643 3.9813410907 26.4929897082 # c
476 1 10 0.1382 80.5522190677 4.8160496216 26.2838850599 # ch
477 1 9 -0.1137 81.3126956831 3.5640231705 27.6425921532 # c
478 1 10 0.1322 81.7300559799 3.2899798381 28.7264118401 # ch
479 1 9 -0.1258 79.2209153397 3.1523645909 27.1464126254 # c
480 1 10 0.1351 78.4190835836 2.0395776622 27.3918574718 # ch