LAMMPS output created by EMC v9.4.4, build Aug 20 2021 07:52:44

       14956  atoms
        5257  bonds
        7770  angles
       10808  dihedrals
        3500  impropers

          10  atom types
          10  bond types
          17  angle types
          22  dihedral types
          15  improper types

             0    131.4911098  xlo xhi
             0     33.7255882  ylo yhi
             0     33.7255882  zlo zhi

Masses

       1   12.01115  # C
       2   35.453  # Cl
       3   18.99840  # F
       4   1.00797  # H
       5   14.0067  # N
       6   195.09  # P
       7   1.00797  # WH
       8   15.99940  # WO
       9   12.01115  # c
      10   1.00797  # ch

Atoms

1 1 1 -0.0874 86.2869498937 6.6204213754 8.5122590540 # C
2 1 4 0.1483 85.8501799006 6.4499725748 9.5692020226 # H
3 1 4 0.1483 85.9604437350 5.8238863365 7.9869528539 # H
4 1 5 -0.3888 85.5279468632 7.0566559801 8.5788271154 # N
5 1 4 0.3534 85.8120943099 7.4418084843 9.5488981233 # H
6 1 4 0.3534 84.8006653951 6.7377479949 8.6998541429 # H
7 1 4 0.3534 85.3312832539 7.4486441531 7.6892090073 # H
8 1 1 -0.1925 87.2260896093 6.4666286472 8.1031642609 # C
9 1 4 0.1051 87.7937445471 7.0380110043 8.2254933650 # H
10 1 4 0.1051 86.9231686412 5.4633545671 8.3452451326 # H
11 1 1 -0.1467 87.3942437845 5.6604176701 7.2429775612 # C
12 1 4 0.0967 88.1195336703 5.9650574614 6.8990943921 # H
13 1 4 0.0967 86.6287118170 5.5201116669 6.7401053476 # H
14 1 1 -0.1533 87.2865398321 4.8418988899 7.1831156660 # C
15 1 4 0.1045 87.2639233759 3.7743755115 6.4880198502 # H
16 1 4 0.1045 86.4016521988 5.2716520229 7.5810173962 # H
17 1 1 -0.1507 87.7058016600 4.7529636451 8.1496187626 # C
18 1 4 0.0852 87.4076684597 5.4531141375 9.0588721698 # H
19 1 4 0.0852 87.3599848170 3.7335053485 8.2396898166 # H
20 1 1 -0.1216 88.8817670143 4.9246055885 8.0641875044 # C
21 1 9 -0.0954 89.1267378634 5.4348673826 8.4742160262 # c
22 1 9 -0.1095 90.2788900333 5.0605303855 8.5171208750 # c
23 1 10 0.1397 90.6761601064 3.8148020262 8.2586706245 # ch
24 1 9 -0.1195 90.8599276338 6.2699128527 8.4194511803 # c
25 1 10 0.1426 91.9136969522 6.5502745632 8.8381850500 # ch
26 1 9 0.0019 90.3521066925 6.9287455281 7.8249083420 # c
27 1 9 -0.0496 90.9369714450 7.7384777700 7.1639829248 # c
28 1 9 -0.1176 91.7975604978 8.3377445079 7.4482864062 # c
29 1 10 0.1308 92.0179704514 8.2240919243 8.4025664711 # ch
30 1 9 -0.1240 91.2511284055 9.2760818667 6.6987826972 # c
31 1 10 0.1377 91.8999619305 9.6988652462 6.1289961139 # ch
32 1 9 -0.0048 90.1965949322 9.8855191061 6.7741439460 # c
33 1 9 -0.0433 89.8599210944 10.7782216402 6.5499945039 # c
34 1 9 -0.1180 89.4680162895 10.9799780836 7.2997013494 # c
35 1 10 0.1268 88.9439810575 10.3736769455 7.9853350742 # ch
36 1 9 -0.1299 89.7949608394 12.3106357313 6.8966516160 # c
37 1 10 0.1353 90.0976801399 13.2037022532 7.4630494302 # ch
38 1 9 -0.1163 89.9447824560 12.5897299634 5.4574187477 # c
39 1 9 -0.1285 89.4352167442 11.7644222485 5.5787696665 # c
40 1 10 0.1374 88.7128890237 11.5517940733 6.0815374125 # ch
41 1 9 -0.1121 89.7700853628 11.0719287119 5.4833047682 # c
42 1 10 0.1322 90.2980013153 10.5411660627 4.5156916065 # ch
43 1 9 -0.1215 89.5660941626 8.9981159363 6.4497625615 # c
44 1 10 0.1382 88.8422216247 9.5361317804 6.0605280267 # ch
45 1 9 -0.1137 90.3869543615 8.0722533417 6.4507223588 # c
46 1 10 0.1322 90.3630312726 7.5388892459 5.1248909275 # ch
47 1 9 -0.1258 89.0443174234 7.4155611983 7.8576885310 # c
48 1 10 0.1351 88.1181383057 7.6568450785 7.1149839190 # ch
49 1 9 -0.1173 88.6571288967 6.6840105938 8.3518722250 # c
50 1 10 0.1244 88.0094199023 6.6540945276 8.9866470111 # ch
51 1 1 0.3932 89.2565001478 3.9121086986 8.0464888956 # C
52 1 3 -0.1422 89.3145289215 3.5291328196 9.1946578768 # F
53 1 3 -0.1422 89.6867641197 3.0769927363 7.5820654734 # F
54 1 3 -0.1422 89.6193396327 3.9136206869 6.7444552404 # F
55 1 1 -0.0874 94.3118815643 12.4038186440 4.1754502206 # C
56 1 4 0.1483 95.1919928733 11.3891798906 3.4235016470 # H
57 1 4 0.1483 93.7715358052 12.4870975034 5.1825971210 # H
58 1 5 -0.3888 93.5413987948 11.6003565765 3.3683401557 # N
59 1 4 0.3534 93.0851999964 10.9210378675 2.4852273338 # H
60 1 4 0.3534 92.8968236572 11.5503481046 4.1557207566 # H
61 1 4 0.3534 94.0891514328 10.9559498842 3.3908488155 # H
62 1 1 -0.1925 94.0672703068 13.3265812055 4.0421386627 # C
63 1 4 0.1051 94.7929144007 13.7880332534 4.5051218393 # H
64 1 4 0.1051 94.1780619880 12.7627491306 3.2337080169 # H
65 1 1 -0.1467 92.8167674430 13.7647881217 4.3872095575 # C
66 1 4 0.0967 93.3765806907 13.4758156329 5.3281400347 # H
67 1 4 0.0967 92.6699296888 14.5106087471 3.7726118072 # H
68 1 1 -0.1533 91.4606260738 13.6750580753 4.7324579559 # C
69 1 4 0.1045 90.7826939674 14.1903517112 5.3214569400 # H
70 1 4 0.1045 91.8646963486 12.6239950432 5.3365238274 # H
71 1 1 -0.1507 90.6177571034 13.2571547904 3.7362440806 # C
72 1 4 0.0852 90.4123880065 14.0611485257 3.0966040290 # H
73 1 4 0.0852 90.7739483377 12.7687223951 2.6313397027 # H
74 1 1 -0.1216 89.8609228414 13.4862705886 4.2124850579 # C
75 1 9 -0.0954 88.5450662601 13.0810566432 3.8886453377 # c
76 1 9 -0.1095 87.8804078701 13.3864609775 3.1000858237 # c
77 1 10 0.1397 86.9344498510 12.5927777234 4.1216606593 # ch
78 1 9 -0.1195 87.0820637615 14.0925724649 2.4430552499 # c
79 1 10 0.1426 87.4384831645 15.3843124588 2.2160783527 # ch
80 1 9 0.0019 86.6351312738 13.6825683291 3.8548055416 # c
81 1 9 -0.0496 87.1083852049 14.7211204606 3.9777151814 # c
82 1 9 -0.1176 88.4827564769 14.9123659878 4.3859362477 # c
83 1 10 0.1308 88.6081010290 13.8343159658 4.4618111118 # ch
84 1 9 -0.1240 88.8679006655 15.8547246596 4.4029892360 # c
85 1 10 0.1377 89.4495261806 16.4768257842 4.6627227394 # ch
86 1 9 -0.0048 87.4901689625 16.6411037781 3.6466516898 # c
87 1 9 -0.0433 88.4294692535 16.7589980839 3.2633560351 # c
88 1 9 -0.1180 88.4122458602 17.8344147218 2.6731277867 # c
89 1 10 0.1268 87.8810147324 17.7740649561 1.3281350160 # ch
90 1 9 -0.1299 89.6541390547 17.8079936055 3.2815591849 # c
91 1 10 0.1353 89.8243312759 18.6512947474 4.3173708925 # ch
92 1 9 -0.1163 89.4742738834 17.1006989529 2.8885372836 # c
93 1 9 -0.1285 89.1481720764 16.1003307349 2.4587550168 # c
94 1 10 0.1374 88.1811008747 16.5218161763 1.9389979234 # ch
95 1 9 -0.1121 89.0149685222 15.9415125160 3.2522789153 # c
96 1 10 0.1322 88.1379184386 15.4011430086 3.5843321008 # ch
97 1 9 -0.1215 86.5003453062 16.5118450545 3.5628136213 # c
98 1 10 0.1382 86.2932287879 16.8585941208 2.6607094080 # ch
99 1 9 -0.1137 86.8748377739 15.7909530665 4.4512242762 # c
100 1 10 0.1322 86.2943819988 15.9913534786 5.4173843862 # ch
101 1 9 -0.1258 87.2318203228 12.9814173421 5.0193409547 # c
102 1 10 0.1351 86.6447287307 12.4792870016 5.7878662876 # ch
103 1 9 -0.1173 87.9940468995 13.2256877040 4.7921724819 # c
104 1 10 0.1244 88.2452217511 14.4795889037 5.2099807573 # ch
105 1 1 0.3932 90.2413681024 14.1394439991 3.8335768087 # C
106 1 3 -0.1422 91.6051580746 14.4892851148 3.4338843110 # F
107 1 3 -0.1422 89.5962537800 14.3790000605 2.9857773358 # F
108 1 3 -0.1422 90.8176795359 14.9299973280 4.4614384448 # F
109 1 1 -0.0874 87.8930606172 14.1482268592 -1.2328074883 # C
110 1 4 0.1483 87.3172230508 14.7392127108 -2.3100307703 # H
111 1 4 0.1483 86.6216111237 14.0076276465 -1.1167302160 # H
112 1 5 -0.3888 88.1462495718 13.2516810176 -0.9341106152 # N
113 1 4 0.3534 88.4376920714 12.5240966176 -0.7187021141 # H
114 1 4 0.3534 87.6953029585 12.9052301352 -0.0251176465 # H
115 1 4 0.3534 88.9476678428 12.9047399961 -2.0942263517 # H
116 1 1 -0.1925 88.7159270408 13.6782307302 -0.1853345343 # C
117 1 4 0.1051 88.1047380874 13.5535027378 0.4765265647 # H
118 1 4 0.1051 89.8852301363 13.7533849521 -0.7521341723 # H
119 1 1 -0.1467 89.3236938115 13.8185619444 0.6567574324 # C
120 1 4 0.0967 89.7384211947 14.8894955721 0.4743725973 # H
121 1 4 0.0967 89.5649724764 13.0728450467 1.4770472703 # H
122 1 1 -0.1533 89.4167009486 14.6935910457 1.2752126126 # C
123 1 4 0.1045 88.6077354027 15.0075420086 1.7740833025 # H
124 1 4 0.1045 90.2779618081 15.5615028704 0.9986946717 # H
125 1 1 -0.1507 89.6796842606 15.5850061425 2.2684646004 # C
126 1 4 0.0852 89.8619359432 15.3348294999 3.1976212314 # H
127 1 4 0.0852 88.4456713683 15.8454172578 1.7930667641 # H
128 1 1 -0.1216 90.0261209719 16.7705731635 2.3656295354 # C
129 1 9 -0.0954 90.8852629112 16.6480759700 2.7110418591 # c
130 1 9 -0.1095 91.0414655253 17.4763598237 3.0800045148 # c
131 1 10 0.1397 90.7884292137 17.5747778042 2.1541344759 # ch
132 1 9 -0.1195 92.0212563197 17.0288392622 3.7858474387 # c
133 1 10 0.1426 92.4487229475 17.5573341863 4.0554231429 # ch
134 1 9 0.0019 92.4778690586 16.2992069701 2.6407853502 # c
135 1 9 -0.0496 92.4768870506 17.0325369668 1.8745125490 # c
136 1 9 -0.1176 93.2874213710 17.5445688324 1.2835963498 # c
137 1 10 0.1308 94.2304714557 16.7575554159 1.2498464030 # ch
138 1 9 -0.1240 93.3103883966 17.7976073923 0.2056001966 # c
139 1 10 0.1377 93.9818286684 18.0108770289 -0.4537940374 # ch
140 1 9 -0.0048 92.1908932369 16.9929512171 0.6267604757 # c
141 1 9 -0.0433 91.6721968216 17.8749351828 1.2966278750 # c
142 1 9 -0.1180 91.0015306150 18.2720422082 1.5381066750 # c
143 1 10 0.1268 90.7936310849 18.7654413742 2.4557997102 # ch
144 1 9 -0.1299 90.5885762389 18.8185942758 0.6837228655 # c
145 1 10 0.1353 91.1838871751 19.0416365519 -0.0056727558 # ch
146 1 9 -0.1163 90.2370350273 19.5535717222 0.9093774205 # c
147 1 9 -0.1285 91.1399193887 19.7759709394 1.6041126765 # c
148 1 10 0.1374 90.7964219269 20.6992470152 1.5641840326 # ch
149 1 9 -0.1121 92.0217695547 19.1576165814 1.3539316328 # c
150 1 10 0.1322 92.9346929560 19.3575051913 1.6052937811 # ch
151 1 9 -0.1215 91.8275320723 15.8157295936 0.8761258554 # c
152 1 10 0.1382 90.7307309784 15.2527260680 0.2308001702 # ch
153 1 9 -0.1137 91.6078199447 16.7554551621 1.6176411947 # c
154 1 10 0.1322 90.9988972250 17.1878122813 0.5932816104 # ch
155 1 9 -0.1258 92.5362097626 15.0860180662 2.2057905319 # c
156 1 10 0.1351 92.2466732256 14.0392691665 1.3959729026 # ch
157 1 9 -0.1173 91.8174494161 15.5518223248 2.3655030689 # c
158 1 10 0.1244 91.2008613704 15.0058750859 2.4185211677 # ch
159 1 1 0.3932 90.2837765559 16.6180797639 1.4325835310 # C
160 1 3 -0.1422 90.2092413545 16.9172078581 0.6153772519 # F
161 1 3 -0.1422 89.1923994586 15.7091090063 1.3573033166 # F
162 1 3 -0.1422 90.7976869473 15.7015978110 1.5390714781 # F
163 1 1 -0.0874 91.1742832357 22.7389814624 1.4518557065 # C
164 1 4 0.1483 90.9326142631 22.0112292400 2.4776177859 # H
165 1 4 0.1483 91.8619715994 23.3965846248 1.3073974514 # H
166 1 5 -0.3888 90.4375365714 23.3495582747 1.4977312838 # N
167 1 4 0.3534 90.0489616004 24.3099671045 1.1425084170 # H
168 1 4 0.3534 90.3952218182 22.6808319679 0.8169735031 # H
169 1 4 0.3534 89.4694908749 23.0501441902 2.2004386091 # H
170 1 1 -0.1925 91.2155447594 22.3733895063 0.5502660885 # C
171 1 4 0.1051 91.9570008631 22.9284933341 -0.0923409623 # H
172 1 4 0.1051 91.7849529715 21.6008826413 0.8770262964 # H
173 1 1 -0.1467 89.7683869838 22.5488311534 0.1260200243 # C
174 1 4 0.0967 89.3374414923 23.6036628688 0.7714218805 # H
175 1 4 0.0967 90.2976014062 21.8088930448 -0.6881751499 # H
176 1 1 -0.1533 88.6047017520 21.9638365301 0.2929131931 # C
177 1 4 0.1045 88.4052174395 20.8241026461 1.3993364831 # H
178 1 4 0.1045 88.0668774693 22.1728652745 -0.6166594432 # H
179 1 1 -0.1507 88.8014075266 20.9319125634 -0.0218680428 # C
180 1 4 0.0852 88.6679727342 20.2403908706 -0.6582914320 # H
181 1 4 0.0852 89.5877698710 21.0895304779 -0.9420962720 # H
182 1 1 -0.1216 89.1755463676 20.1466260155 0.6774239287 # C
183 1 9 -0.0954 89.2914930750 20.7802302364 1.2604434401 # c
184 1 9 -0.1095 89.0182227573 21.7625414350 1.9144405710 # c
185 1 10 0.1397 90.0033713329 21.3671401727 2.3126831196 # ch
186 1 9 -0.1195 88.9322410630 22.5510435782 2.3666591839 # c
187 1 10 0.1426 87.8092721974 22.3827115106 2.5358108663 # ch
188 1 9 0.0019 90.3620594146 22.6374317694 1.8269353322 # c
189 1 9 -0.0496 90.3791232845 23.7187240802 2.4606526676 # c
190 1 9 -0.1176 90.1597572143 23.5870018434 3.3653278902 # c
191 1 10 0.1308 89.6325052307 22.7520957955 3.3148291948 # ch
192 1 9 -0.1240 90.5802634645 23.8199326800 4.2927011183 # c
193 1 10 0.1377 91.0197318401 23.4899220309 5.6469354299 # ch
194 1 9 -0.0048 90.8023410229 24.6155685190 3.2671887997 # c
195 1 9 -0.0433 89.7351623575 25.3455955809 3.1134941676 # c
196 1 9 -0.1180 88.6486868371 24.4199998089 2.9755834267 # c
197 1 10 0.1268 87.9216040698 24.9275552135 2.8292769121 # ch
198 1 9 -0.1299 88.6547801738 25.3135762503 3.2341171297 # c
199 1 10 0.1353 88.1468906520 26.1663112953 3.0702774366 # ch
200 1 9 -0.1163 89.0044343387 26.1810733131 3.7527671413 # c
201 1 9 -0.1285 89.4195283944 27.1071914226 3.1665010967 # c
202 1 10 0.1374 89.2041341059 28.1084359083 2.4813697212 # ch
203 1 9 -0.1121 89.9578085505 26.3956736931 3.2597034904 # c
204 1 10 0.1322 91.2059874683 26.6352705222 3.0713351852 # ch
205 1 9 -0.1215 91.5136458176 24.9466807700 2.2497548340 # c
206 1 10 0.1382 92.5981306813 24.7756432187 2.4573036364 # ch
207 1 9 -0.1137 90.6976462879 24.7854145761 1.8303271269 # c
208 1 10 0.1322 89.9575603308 25.3562690100 1.7429677900 # ch
209 1 9 -0.1258 90.7591893752 21.6724884305 1.1912970726 # c
210 1 10 0.1351 91.4385260813 20.9844588624 1.5053949230 # ch
211 1 9 -0.1173 90.0615577557 21.4424755766 0.5188767484 # c
212 1 10 0.1244 89.3784828725 21.7425239140 -0.4544769528 # ch
213 1 1 0.3932 89.3320592484 18.9482391020 0.8499199427 # C
214 1 3 -0.1422 89.9217848447 18.9861022291 1.3619208896 # F
215 1 3 -0.1422 89.8998236476 18.2637752386 1.6033943321 # F
216 1 3 -0.1422 89.1034794126 18.6146085559 -0.2402085127 # F
217 1 1 -0.0874 89.7062472417 27.9758992604 8.4514715194 # C
218 1 4 0.1483 88.9579489006 28.3134022316 9.4505965005 # H
219 1 4 0.1483 90.0691539542 27.6447381874 9.3378863499 # H
220 1 5 -0.3888 89.8743960819 26.9997175540 8.0466404090 # N
221 1 4 0.3534 89.6133940882 26.8637321606 7.2036627246 # H
222 1 4 0.3534 89.4525665980 26.3338679410 8.7156630314 # H
223 1 4 0.3534 90.7204506055 26.5880441538 8.0704039456 # H
224 1 1 -0.1925 90.0899660693 28.6023578104 7.7545212697 # C
225 1 4 0.1051 90.8866021638 29.5066737334 8.1747178533 # H
226 1 4 0.1051 89.2646694471 29.2107845104 7.8564168899 # H
227 1 1 -0.1467 89.8339310965 28.1176505744 6.7047348249 # C
228 1 4 0.0967 88.7556588317 28.3103689787 6.8841923663 # H
229 1 4 0.0967 90.7906721133 26.8756307271 6.0759749708 # H
230 1 1 -0.1533 90.0603940939 27.5543143120 5.5119628424 # C
231 1 4 0.1045 89.0577770476 26.3377423670 5.8074404241 # H
232 1 4 0.1045 91.0804084548 28.0388303791 4.9459649022 # H
233 1 1 -0.1507 90.6616104435 26.8826142957 5.1494802149 # C
234 1 4 0.0852 91.7313745864 27.5656908661 5.1858592958 # H
235 1 4 0.0852 91.2270434026 25.9639649432 5.0717081957 # H
236 1 1 -0.1216 89.7986470455 26.2250364658 4.6103316014 # C
237 1 9 -0.0954 89.8555638143 27.1758658804 4.1659801268 # c
238 1 9 -0.1095 90.0724452050 28.5837442717 4.0596860528 # c
239 1 10 0.1397 90.3022456112 29.0892372926 3.3007179887 # ch
240 1 9 -0.1195 89.9979685092 29.7912934962 5.1031406751 # c
241 1 10 0.1426 90.7569092223 30.5908501626 5.3602773681 # ch
242 1 9 0.0019 88.4679498758 28.9347145228 4.4080105343 # c
243 1 9 -0.0496 87.5383584695 29.2395482051 5.0181748029 # c
244 1 9 -0.1176 87.6964370252 29.7499752988 6.0494729792 # c
245 1 10 0.1308 87.9339369115 30.3756293851 5.7276009825 # ch
246 1 9 -0.1240 86.8046075208 29.8183886399 6.5016337155 # c
247 1 10 0.1377 87.1709492837 30.8274971431 6.8785723438 # ch
248 1 9 -0.0048 86.1842793978 29.3919965781 5.6725479017 # c
249 1 9 -0.0433 86.1431806482 28.5744153810 5.9522257952 # c
250 1 9 -0.1180 85.8803072091 28.1849459591 6.5166854156 # c
251 1 10 0.1268 86.4921655919 26.6078230780 6.3657120121 # ch
252 1 9 -0.1299 85.0093987910 29.1430734781 6.9380145404 # c
253 1 10 0.1353 84.2428231744 29.2040830936 6.6298050502 # ch
254 1 9 -0.1163 85.8564776421 30.1535308730 7.2638194601 # c
255 1 9 -0.1285 87.3196657534 29.8759000892 7.7736801880 # c
256 1 10 0.1374 88.2591257571 29.8532255691 7.5144114958 # ch
257 1 9 -0.1121 86.6178021137 29.0789346425 7.0525084517 # c
258 1 10 0.1322 86.8532582570 28.8466815962 7.8854528605 # ch
259 1 9 -0.1215 85.9348665909 28.6311887935 4.3510412437 # c
260 1 10 0.1382 85.1046702611 28.4256884219 3.8039723785 # ch
261 1 9 -0.1137 86.9242357670 28.5272151193 4.1923645156 # c
262 1 10 0.1322 87.7710618866 28.4873818352 3.2550167425 # ch
263 1 9 -0.1258 88.0351279677 27.8925349829 3.9049536268 # c
264 1 10 0.1351 86.8681764286 28.2081098101 3.2998108280 # ch
265 1 9 -0.1173 88.6736185877 27.2009022523 3.4726678192 # c
266 1 10 0.1244 88.6900484375 26.9844746799 2.2396380713 # ch
267 1 1 0.3932 89.9905545530 25.2169488612 5.0428617614 # C
268 1 3 -0.1422 89.3355117828 24.3753533629 5.1821366964 # F
269 1 3 -0.1422 90.8843423249 24.8511311765 4.4616519917 # F
270 1 3 -0.1422 89.6723828757 25.3838158498 6.1556203449 # F
271 1 1 -0.0874 86.6881585404 31.8846296533 5.1823935638 # C
272 1 4 0.1483 87.2541544731 32.8513202537 4.3064120978 # H
273 1 4 0.1483 87.5268702701 31.7098280400 5.6108342631 # H
274 1 5 -0.3888 85.5119811236 32.1533891150 5.5146502517 # N
275 1 4 0.3534 84.5491207182 32.4499367531 6.3848500687 # H
276 1 4 0.3534 85.9028926280 31.3660063901 5.3627818652 # H
277 1 4 0.3534 84.6137306782 31.8888374151 4.7270764021 # H
278 1 1 -0.1925 86.8009909648 30.8997064367 4.4513931207 # C
279 1 4 0.1051 87.6657720429 31.1434811876 3.8935884551 # H
280 1 4 0.1051 86.9240279419 29.8140711729 4.9071704603 # H
281 1 1 -0.1467 85.8819654066 30.4676200256 4.3186753475 # C
282 1 4 0.0967 85.3125817046 30.0698484759 3.5516040342 # H
283 1 4 0.0967 85.9846378318 29.4752405460 4.3652464452 # H
284 1 1 -0.1533 85.1826535261 31.2465138053 4.9818101632 # C
285 1 4 0.1045 84.1657953770 30.3499278051 4.7532567351 # H
286 1 4 0.1045 85.4152354923 31.9689069449 4.3351663536 # H
287 1 1 -0.1507 85.1619090355 31.5058900743 5.9954931034 # C
288 1 4 0.0852 84.9435903323 32.4334741422 6.8012389402 # H
289 1 4 0.0852 86.1784684433 31.3383022845 6.2986729874 # H
290 1 1 -0.1216 85.1409935492 30.8670120204 7.1103835154 # C
291 1 9 -0.0954 84.5306570950 30.5483513441 7.7628998237 # c
292 1 9 -0.1095 85.1382449988 29.6828329894 8.1253915573 # c
293 1 10 0.1397 86.1476631085 29.5903662901 8.4496257531 # ch
294 1 9 -0.1195 84.2447919881 28.7467251569 8.5234179033 # c
295 1 10 0.1426 84.1582901204 27.9800028679 9.6069765352 # ch
296 1 9 0.0019 83.4036908073 28.8399128679 7.4105940006 # c
297 1 9 -0.0496 84.0123642616 27.9598631405 7.4412305790 # c
298 1 9 -0.1176 83.5247321613 27.0833720910 7.1819033721 # c
299 1 10 0.1308 83.2859713906 27.2482712666 6.1892984551 # ch
300 1 9 -0.1240 84.2152928024 26.9774978107 8.0544430337 # c
301 1 10 0.1377 84.0818950715 26.0030992681 8.5523829455 # ch
302 1 9 -0.0048 85.0752803829 27.9847775185 8.1459953934 # c
303 1 9 -0.0433 85.6138691218 27.9879574077 9.3243212022 # c
304 1 9 -0.1180 85.7438646213 29.4533564852 9.5134461756 # c
305 1 10 0.1268 85.5817395359 30.0562419788 8.8653098698 # ch
306 1 9 -0.1299 86.7217743017 29.9481476506 9.9493881676 # c
307 1 10 0.1353 87.7936947903 30.1000217756 10.5360424410 # ch
308 1 9 -0.1163 86.8040234566 27.9438675202 10.0903955416 # c
309 1 9 -0.1285 86.4742843446 26.3478394901 9.1763222358 # c
310 1 10 0.1374 85.2349299398 25.6897447389 8.9727002338 # ch
311 1 9 -0.1121 85.8826525406 27.1152488038 9.5090807310 # c
312 1 10 0.1322 85.2335431299 27.1898768766 10.4279246085 # ch
313 1 9 -0.1215 85.5816176119 28.4269946649 7.6030104723 # c
314 1 10 0.1382 86.1595999218 28.9702475441 7.6999729388 # ch
315 1 9 -0.1137 84.7771425707 28.3368217291 7.2410208877 # c
316 1 10 0.1322 84.1571536285 28.2331467753 5.8055444225 # ch
317 1 9 -0.1258 82.9500288922 29.5935425296 5.9505543155 # c
318 1 10 0.1351 81.9172239435 29.7975439807 5.3771764402 # ch
319 1 9 -0.1173 83.6787913069 29.8337102101 6.9748926002 # c
320 1 10 0.1244 82.6063167040 30.4699292019 6.8990473698 # ch
321 1 1 0.3932 85.5546882325 31.4177769734 7.8284175975 # C
322 1 3 -0.1422 85.0659292821 32.1635932114 7.9605618355 # F
323 1 3 -0.1422 85.2608251103 30.6484990918 8.2240524089 # F
324 1 3 -0.1422 86.6126538556 31.4420410221 8.2443279481 # F
325 1 1 -0.0874 83.5585622345 24.5476324107 10.0572552429 # C
326 1 4 0.1483 82.8333984543 25.6866817928 10.0569418512 # H
327 1 4 0.1483 82.8578437660 23.7618715804 9.8766398794 # H
328 1 5 -0.3888 83.6742454259 23.7928604318 9.1249332368 # N
329 1 4 0.3534 82.7843309302 23.3901944392 8.2935141760 # H
330 1 4 0.3534 83.5377157934 22.6335546242 9.4947863842 # H
331 1 4 0.3534 84.3090882660 24.6199511657 8.3894222457 # H
332 1 1 -0.1925 84.2945573991 25.3070072491 10.6924087617 # C
333 1 4 0.1051 84.0778692393 26.1021717579 11.2349065133 # H
334 1 4 0.1051 84.3175540165 25.7269245116 9.4953277196 # H
335 1 1 -0.1467 85.5998050139 24.9952160050 10.8459895996 # C
336 1 4 0.0967 85.8299346672 24.4441233235 11.9733106325 # H
337 1 4 0.0967 85.6997284005 24.2292530324 10.4952075494 # H
338 1 1 -0.1533 86.5503643841 26.1546737320 10.7053799017 # C
339 1 4 0.1045 86.2759582121 26.8572962965 10.0822254891 # H
340 1 4 0.1045 87.5534487468 25.1708556026 10.2569886929 # H
341 1 1 -0.1507 86.5955472681 26.6112145053 11.8021735968 # C
342 1 4 0.0852 87.3410862513 25.8369943641 12.3166080501 # H
343 1 4 0.0852 86.9462973910 26.5888987259 12.5663604645 # H
344 1 1 -0.1216 86.8410044268 27.5183682089 11.3978979106 # C
345 1 9 -0.0954 88.1235313910 27.8833849996 11.1343911485 # c
346 1 9 -0.1095 88.6305802118 28.7425575632 11.0775849888 # c
347 1 10 0.1397 89.3010171939 29.3153942914 10.5246964671 # ch
348 1 9 -0.1195 88.4499445210 28.9070752650 12.1528351389 # c
349 1 10 0.1426 88.5999820538 29.6768784785 12.6321439093 # ch
350 1 9 0.0019 89.4379087537 27.3231244144 12.0458516567 # c
351 1 9 -0.0496 90.6433864505 27.7167213592 12.0337543953 # c
352 1 9 -0.1176 91.3785232207 27.9085772149 11.4512700431 # c
353 1 10 0.1308 91.9661040282 28.5039661673 11.0812725343 # ch
354 1 9 -0.1240 92.3747964281 27.2385920261 10.6402679077 # c
355 1 10 0.1377 92.7749631550 27.5797576550 9.7488823061 # ch
356 1 9 -0.0048 91.9163193673 26.6925324545 12.5563546081 # c
357 1 9 -0.0433 92.7373198540 26.0926255965 12.3469470006 # c
358 1 9 -0.1180 94.0659216930 25.8210421229 11.6541635044 # c
359 1 10 0.1268 95.0097377339 25.6474136273 11.4176205849 # ch
360 1 9 -0.1299 93.9668730400 26.3285748601 10.7639863885 # c
361 1 10 0.1353 94.6614644212 27.3270745452 10.7517331417 # ch
362 1 9 -0.1163 93.3877660894 25.6317370220 10.2426062920 # c
363 1 9 -0.1285 92.2298523972 25.2820418026 10.7936016266 # c
364 1 10 0.1374 91.0894943484 24.6850024327 11.3110583223 # ch
365 1 9 -0.1121 92.3730099259 25.3663593142 12.0177157881 # c
366 1 10 0.1322 92.5163742004 24.5408827608 12.4899562432 # ch
367 1 9 -0.1215 91.1921190536 26.5342580959 13.0998216816 # c
368 1 10 0.1382 90.8479658911 26.7470214772 14.0506058474 # ch
369 1 9 -0.1137 90.3778595489 27.0225521816 12.5737760211 # c
370 1 10 0.1322 89.4565006485 27.2786469036 13.6362873833 # ch
371 1 9 -0.1258 89.1597659324 26.4507748793 10.9477284644 # c
372 1 10 0.1351 88.3427058316 25.1184896244 10.7452530556 # ch
373 1 9 -0.1173 88.6831963107 27.0677525764 11.7113965097 # c
374 1 10 0.1244 87.9321965664 26.8885879294 11.7696749145 # ch
375 1 1 0.3932 86.3169980018 28.4068864161 12.1327373579 # C
376 1 3 -0.1422 85.2655915167 27.7225572833 12.2441133241 # F
377 1 3 -0.1422 86.8856804523 27.8139932634 13.0508261604 # F
378 1 3 -0.1422 86.0988341387 29.4667682486 12.0615485647 # F
379 1 1 -0.0874 96.7816742266 25.6969568077 7.6099874205 # C
380 1 4 0.1483 97.5380246025 26.0387676460 7.0871089127 # H
381 1 4 0.1483 97.0630354171 24.0952829019 7.8675014753 # H
382 1 5 -0.3888 96.4793878432 25.9470848257 8.5186879843 # N
383 1 4 0.3534 97.2768088686 25.6180158690 9.3014737210 # H
384 1 4 0.3534 95.7398479312 25.4050080090 7.7744834003 # H
385 1 4 0.3534 95.9508442374 26.1605078591 9.2525464417 # H
386 1 1 -0.1925 96.1426442575 26.2105329208 7.0601997410 # C
387 1 4 0.1051 95.6828482938 25.1857322354 7.1151983992 # H
388 1 4 0.1051 95.6120929395 27.2109889818 7.3503965246 # H
389 1 1 -0.1467 95.0456197367 26.0566103046 7.1351118652 # C
390 1 4 0.0967 94.5729909181 27.0470351578 7.0954518343 # H
391 1 4 0.0967 94.9171157087 26.4996305414 5.9320667843 # H
392 1 1 -0.1533 94.7242924080 25.1624328394 7.7995845585 # C
393 1 4 0.1045 94.0000008140 24.6778815230 7.8528940291 # H
394 1 4 0.1045 95.6211961938 24.4219531595 7.6989749885 # H
395 1 1 -0.1507 94.8718916646 24.8693695485 9.2922840212 # C
396 1 4 0.0852 95.9125078148 25.4555941515 9.5647413327 # H
397 1 4 0.0852 95.2429610758 23.3484124878 9.1964470508 # H
398 1 1 -0.1216 93.6540651349 25.3051307729 9.3427091478 # C
399 1 9 -0.0954 93.0624331543 25.5832128836 8.7364080494 # c
400 1 9 -0.1095 93.2345321818 26.2247552739 8.0813490264 # c
401 1 10 0.1397 94.3426833745 27.1282606160 8.1702228409 # ch
402 1 9 -0.1195 91.9783086756 26.1055606543 7.6464182491 # c
403 1 10 0.1426 91.7895488385 25.6765605529 6.3968890600 # ch
404 1 9 0.0019 91.2515451774 26.5694879312 8.4464292406 # c
405 1 9 -0.0496 91.1977472286 26.9227290363 7.4464630494 # c
406 1 9 -0.1176 91.5343565809 27.8000288478 6.9363521853 # c
407 1 10 0.1308 91.8165163371 28.6424890304 8.0972328433 # ch
408 1 9 -0.1240 91.2549446660 27.8611469259 6.2750988345 # c
409 1 10 0.1377 91.7986649595 28.5446806031 5.3311167393 # ch
410 1 9 -0.0048 89.9442887445 27.2621226994 6.3095432178 # c
411 1 9 -0.0433 88.9708089583 27.7778199455 5.6338309767 # c
412 1 9 -0.1180 89.0703079771 27.4124643988 4.5743747834 # c
413 1 10 0.1268 89.4831451926 27.8468856526 3.8450309663 # ch
414 1 9 -0.1299 87.7942883239 27.2629687176 4.0980606318 # c
415 1 10 0.1353 87.6909188653 27.5305250332 2.8864283557 # ch
416 1 9 -0.1163 86.7679691040 27.6433484884 4.8395852191 # c
417 1 9 -0.1285 87.1561792805 28.3231454024 5.3640452359 # c
418 1 10 0.1374 87.0138471107 29.0833973540 5.1145159529 # ch
419 1 9 -0.1121 87.8040036546 28.5512341679 5.9690055017 # c
420 1 10 0.1322 87.3104576347 29.1670346738 6.5720413663 # ch
421 1 9 -0.1215 89.4768210812 26.0285962361 7.1666380255 # c
422 1 10 0.1382 88.6009167986 25.4141590476 7.3179349332 # ch
423 1 9 -0.1137 90.5915619478 26.4140731756 7.1611337553 # c
424 1 10 0.1322 89.9967153145 26.2482655975 8.1091409622 # ch
425 1 9 -0.1258 91.0020649023 25.6575647900 9.2084652358 # c
426 1 10 0.1351 89.6631952290 25.3777129640 9.6504190515 # ch
427 1 9 -0.1173 91.8885824468 25.8971966184 8.2801276777 # c
428 1 10 0.1244 92.2297578075 26.8530932142 7.6148736587 # ch
429 1 1 0.3932 92.5845208158 24.5498031187 9.3720725803 # C
430 1 3 -0.1422 91.8078900632 23.9457073712 8.8546903793 # F
431 1 3 -0.1422 92.2867564755 24.2798634567 10.5315423266 # F
432 1 3 -0.1422 92.7274145543 24.9430668536 8.4083302062 # F
433 1 1 -0.0874 85.1783876948 27.2214141436 0.8112363461 # C
434 1 4 0.1483 86.2075964961 27.0804885383 1.0309604406 # H
435 1 4 0.1483 84.8894779485 27.7614078318 0.0456941103 # H
436 1 5 -0.3888 85.0558920261 25.9046747193 0.9835011144 # N
437 1 4 0.3534 84.4812134884 26.0884263913 0.2286096342 # H
438 1 4 0.3534 83.9103894351 25.9951790206 2.3250712411 # H
439 1 4 0.3534 85.7970183042 25.1164048575 1.1432504370 # H
440 1 1 -0.1925 84.1787569386 27.3928380986 1.4781312127 # C
441 1 4 0.1051 83.4916619788 27.0649746393 1.5225339898 # H
442 1 4 0.1051 83.5390349364 28.5373137711 2.0061427605 # H
443 1 1 -0.1467 84.9032607650 27.9511560898 2.0607305435 # C
444 1 4 0.0967 84.3519583571 28.1253530510 2.8834705724 # H
445 1 4 0.0967 85.6846005006 29.2494671396 1.8890590818 # H
446 1 1 -0.1533 86.0438401878 27.1614953647 2.3400846479 # C
447 1 4 0.1045 85.9825024185 26.4228668356 2.3047497225 # H
448 1 4 0.1045 87.1259115635 27.0282863280 1.9521481386 # H
449 1 1 -0.1507 86.0832851461 27.7857987703 3.0310960934 # C
450 1 4 0.0852 85.5532865869 28.4276567341 3.0452404817 # H
451 1 4 0.0852 87.1488500677 27.6831872211 2.5018858184 # H
452 1 1 -0.1216 85.9354946793 27.5330969798 4.3396898598 # C
453 1 9 -0.0954 85.2739179459 26.5477055243 4.1940079695 # c
454 1 9 -0.1095 84.8464544234 25.7537624183 3.5207274754 # c
455 1 10 0.1397 85.8114884715 25.5419272454 2.8678199380 # ch
456 1 9 -0.1195 84.1950647938 25.4698141871 2.8652542065 # c
457 1 10 0.1426 84.1617708506 24.7326766666 2.6946178022 # ch
458 1 9 0.0019 83.6446941593 25.6083927122 3.5609541479 # c
459 1 9 -0.0496 83.0044793713 24.5724699342 3.6934057962 # c
460 1 9 -0.1176 82.8845473840 23.5962496735 3.5958384422 # c
461 1 10 0.1308 83.6056140413 23.1602014288 3.9136429173 # ch
462 1 9 -0.1240 82.4191003933 22.8015148707 2.5616265196 # c
463 1 10 0.1377 81.3286439792 22.2362171946 2.2710542397 # ch
464 1 9 -0.0048 82.5113309682 23.6661648557 1.9317783705 # c
465 1 9 -0.0433 81.5580176576 23.4891919160 1.7273661976 # c
466 1 9 -0.1180 81.3061490641 22.7649297595 1.0396144962 # c
467 1 10 0.1268 82.2348954548 22.4790527335 0.4357389408 # ch
468 1 9 -0.1299 80.2987583404 22.5032725063 1.1518348706 # c
469 1 10 0.1353 79.2892426574 21.7949525482 2.0475713462 # ch
470 1 9 -0.1163 81.3461119355 23.2811473172 2.1363108062 # c
471 1 9 -0.1285 82.1307526267 24.7264147815 1.6150202998 # c
472 1 10 0.1374 83.1666566925 25.4698220314 1.4743060572 # ch
473 1 9 -0.1121 81.4711288077 24.2773698562 0.7638785585 # c
474 1 10 0.1322 81.4584521613 24.0805934852 -0.1831386390 # ch
475 1 9 -0.1215 83.2030913537 24.6770865930 1.8827713283 # c
476 1 10 0.1382 83.5707628597 25.0103271291 0.7176321085 # ch
477 1 9 -0.1137 83.0031513017 25.3698320872 3.1173061923 # c
478 1 10 0.1322 82.2367804180 26.2978355883 3.4895843925 # ch
479 1 9 -0.1258 83.8815442773 26.2553056535 4.9090087412 # c
480 1 10 0.1351 83.6807177790 25.7769233930 5.7500393734 # ch
481 1 9 -0.1173 84.3520795844 27.0370251364 4.5287918751 # c
482 1 10 0.1244 83.9185304008 27.8490822805 3.9529467002 # ch